13   
Climbing Image - Chain 7 Image 6 Energy  -340.9183481406 (+5.143 kcal/mol) RMSGrad 0.060 eV/Ang
C       -2.4705157139    0.8064672621   -0.8768558928
N       -1.5274973015    0.6340051477   -0.1919698933
C        0.7460163952   -0.3283172094   -0.2539062934
C       -0.3624907496    0.3737975175    0.5838230615
C       -0.7070137230   -0.4792819650    1.8307767840
N       -1.6068259410   -0.2193101086    2.6536314770
C        0.6852854299   -0.3736329538   -1.7513519047
C        1.5699805163    0.4281820730   -1.2476882978
H        1.1997966730   -1.1620782331    0.2934531432
H        0.0053942902    1.3418424419    0.9485878799
H       -0.0723048459   -1.3667736593    1.9807993988
H        0.1855114530   -0.8152585246   -2.6003357469
H        2.3548909712    1.1606227300   -1.3689204559
