13   
Iteration 1 Energy -340.92501853
C       -2.1257467288    1.2809489374    0.4634032994
N       -0.9825527846    1.7729549886    0.2838429147
C        0.9281164373    0.3392409377   -0.4622423054
C       -0.0752631246    0.6445938418    0.6526016312
C       -1.0573648463   -0.4465543818    1.0177526789
N       -2.2867657654   -0.0624859204    0.9109739468
C        1.4900395810   -1.0399663654   -0.6946996753
C        0.6317460812   -0.6290190839   -1.5755431271
H        1.5485534560    1.2154431421   -0.6721386780
H        0.4744918550    0.9575001592    1.5545364208
H       -0.7990896608   -1.4504385666    1.3484073361
H        2.1762276027   -1.7944125599   -0.3383758525
H        0.0776078979   -0.7878051284   -2.4885185901
13   
Iteration 0 Energy -340.92501853
C       -2.1266810522    1.2780427499    0.4608448225
N       -0.9841757397    1.7714867133    0.2808543442
C        0.9290047956    0.3390258469   -0.4612711898
C       -0.0752490500    0.6453367806    0.6525026540
C       -1.0559025322   -0.4464764550    1.0195505232
N       -2.2858586956   -0.0646531317    0.9113416663
C        1.4880188055   -1.0411541847   -0.6952507539
C        0.6315861274   -0.6268949702   -1.5763227634
H        1.5516887418    1.2140584457   -0.6693895174
H        0.4736676255    0.9610590852    1.5539469689
H       -0.7961949795   -1.4492011732    1.3526009999
H        2.1721205351   -1.7976801320   -0.3393262998
H        0.0779754184   -0.7829495747   -2.4900814545
13   
Iteration 36 Energy -340.92501852
C       -2.1267390048    1.2779509984    0.4607366389
N       -0.9842473837    1.7714894471    0.2808748660
C        0.9290151908    0.3390252718   -0.4612771153
C       -0.0752507339    0.6453621098    0.6524903589
C       -1.0558743678   -0.4464606856    1.0195911223
N       -2.2858431931   -0.0647075690    0.9113819379
C        1.4879572431   -1.0411831281   -0.6952628888
C        0.6315952130   -0.6268456003   -1.5763668772
H        1.5517849681    1.2140106244   -0.6693373747
H        0.4736761228    0.9611018745    1.5539304489
H       -0.7961077326   -1.4491385706    1.3527352289
H        2.1719976429   -1.7977595591   -0.3393301002
H        0.0780360353   -0.7828452132   -2.4901662456
13   
Iteration 35 Energy -340.92501867
C       -2.1261752519    1.2794736273    0.4621344688
N       -0.9833447082    1.7721115854    0.2821019293
C        0.9285830797    0.3390224257   -0.4616264992
C       -0.0752306326    0.6449215916    0.6526074624
C       -1.0566210671   -0.4465191475    1.0187528093
N       -2.2863115862   -0.0635937553    0.9111511518
C        1.4890161402   -1.0405730573   -0.6950278200
C        0.6316566674   -0.6279543460   -1.5759796182
H        1.5500954921    1.2146906408   -0.6705916081
H        0.4740261988    0.9595439175    1.5542208585
H       -0.7976775711   -1.4498207333    1.3506369588
H        2.1741922495   -1.7960847271   -0.3390043459
H        0.0777909894   -0.7852180218   -2.4893757476
13   
Iteration 34 Energy -340.92501838
C       -2.1267731678    1.2773247298    0.4601971365
N       -0.9844629400    1.7710094730    0.2797970870
C        0.9292774337    0.3389243408   -0.4608819642
C       -0.0751828799    0.6454559557    0.6525408047
C       -1.0554583108   -0.4465277860    1.0200443079
N       -2.2855465975   -0.0652304651    0.9112697685
C        1.4874626482   -1.0414049888   -0.6953605219
C        0.6314541481   -0.6263589910   -1.5764687973
H        1.5523822789    1.2137551907   -0.6686234998
H        0.4733762799    0.9621397784    1.5538384256
H       -0.7954711107   -1.4489890093    1.3536631949
H        2.1710544585   -1.7984895940   -0.3396310996
H        0.0778877594   -0.7816086342   -2.4903848424
13   
Iteration 33 Energy -340.92501364
C       -2.1303356051    1.2654352392    0.4495835777
N       -0.9909153365    1.7654097054    0.2682577041
C        0.9327433436    0.3385381464   -0.4573369910
C       -0.0752365783    0.6485825323    0.6518406864
C       -1.0494269665   -0.4462892819    1.0270772903
N       -2.2816166905   -0.0739704727    0.9125882584
C        1.4790933296   -1.0460906005   -0.6973099360
C        0.6307456570   -0.6175864492   -1.5793046560
H        1.5649509623    1.2084548695   -0.6581156738
H        0.4701127902    0.9753086207    1.5515079686
H       -0.7835526020   -1.4439310525    1.3704826673
H        2.1540271304   -1.8115420215   -0.3429909605
H        0.0794105658   -0.7623192352   -2.4962799355
13   
Iteration 32 Energy -340.92500053
C       -2.1344068251    1.2511679787    0.4364682697
N       -0.9979841115    1.7573935813    0.2532559463
C        0.9373840034    0.3375885552   -0.4523697333
C       -0.0746537925    0.6516757661    0.6516631272
C       -1.0418677662   -0.4461792147    1.0356641496
N       -2.2765023995   -0.0845523724    0.9136310634
C        1.4687636421   -1.0512191501   -0.6997010296
C        0.6295643266   -0.6071840098   -1.5826216960
H        1.5798196413    1.2018516755   -0.6450226615
H        0.4657487148    0.9927289402    1.5488412147
H       -0.7693050677   -1.4380332329    1.3904686904
H        2.1331077566   -1.8268216506   -0.3474485234
H        0.0803318777   -0.7384168665   -2.5028288177
13   
Iteration 31 Energy -340.92497867
C       -2.1379957374    1.2355077302    0.4238703166
N       -1.0059942016    1.7501376846    0.2380391713
C        0.9417786426    0.3369048380   -0.4478736303
C       -0.0752163450    0.6556479604    0.6502826059
C       -1.0344132553   -0.4457142960    1.0449261455
N       -2.2714937145   -0.0956402972    0.9155831263
C        1.4581442335   -1.0568256472   -0.7024045813
C        0.6291160598   -0.5958563739   -1.5862128432
H        1.5954651916    1.1946616026   -0.6315409790
H        0.4611674256    1.0088690318    1.5451585263
H       -0.7546965634   -1.4310069906    1.4123580793
H        2.1110231746   -1.8429438555   -0.3520527519
H        0.0831150895   -0.7137413870   -2.5101331856
13   
Iteration 30 Energy -340.92494640
C       -2.1435727231    1.2198852811    0.4105308209
N       -1.0142696164    1.7400020979    0.2216359365
C        0.9466527346    0.3356101683   -0.4429490187
C       -0.0748279750    0.6587572553    0.6494889992
C       -1.0265284205   -0.4450079563    1.0546623202
N       -2.2661055855   -0.1064631289    0.9193201720
C        1.4467379922   -1.0626538241   -0.7054471111
C        0.6291342643   -0.5842535974   -1.5904782497
H        1.6119545848    1.1864739717   -0.6167583832
H        0.4560458047    1.0280074378    1.5410419327
H       -0.7392833944   -1.4235458146    1.4343227159
H        2.0873679255   -1.8596673436   -0.3571358695
H        0.0866944089   -0.6871445473   -2.5182342652
13   
Iteration 29 Energy -340.92490442
C       -2.1470837287    1.2027725026    0.4002359192
N       -1.0234759858    1.7316624240    0.2045428499
C        0.9516422070    0.3342530422   -0.4386839031
C       -0.0762718493    0.6623086397    0.6463271746
C       -1.0188695825   -0.4444705710    1.0651733508
N       -2.2611029036   -0.1176768807    0.9247951150
C        1.4348894165   -1.0682433108   -0.7085074137
C        0.6305571429   -0.5720502204   -1.5958100940
H        1.6290493144    1.1776489109   -0.6018254964
H        0.4496423084    1.0456887318    1.5348202532
H       -0.7239570667   -1.4153529162    1.4582987793
H        2.0617333707   -1.8766237694   -0.3613286746
H        0.0932473567   -0.6599165828   -2.5280378601
13   
Iteration 28 Energy -340.92484266
C       -2.1558462698    1.1848524166    0.3894856357
N       -1.0356027930    1.7182834019    0.1840299086
C        0.9570599449    0.3323969848   -0.4344525128
C       -0.0775730495    0.6659527411    0.6425349931
C       -1.0109150206   -0.4424926351    1.0779145393
N       -2.2558408638   -0.1281850888    0.9361132318
C        1.4220597329   -1.0759423682   -0.7133201072
C        0.6346195960   -0.5578962014   -1.6031045735
H        1.6491255501    1.1664276695   -0.5834834331
H        0.4421680003    1.0664937376    1.5272077912
H       -0.7067500490   -1.4046030404    1.4857925720
H        2.0328476369   -1.8971654825   -0.3676983815
H        0.1046475847   -0.6281221352   -2.5410196636
13   
Iteration 27 Energy -340.92474878
C       -2.1639731486    1.1655072862    0.3860815503
N       -1.0504746599    1.7041342227    0.1604047220
C        0.9634828451    0.3285222223   -0.4310511184
C       -0.0816932546    0.6675881965    0.6336036929
C       -1.0033077330   -0.4409078594    1.0931492049
N       -2.2520379218   -0.1373102268    0.9574437337
C        1.4076033406   -1.0836610540   -0.7187679325
C        0.6432390072   -0.5428431336   -1.6148187071
H        1.6716501014    1.1520419057   -0.5620339959
H        0.4297281410    1.0905557223    1.5126636880
H       -0.6885494873   -1.3925045136    1.5170546265
H        1.9983803091   -1.9191904499   -0.3727172932
H        0.1259524608   -0.5919323185   -2.5610121712
13   
Iteration 26 Energy -340.92462561
C       -2.1768216079    1.1527359392    0.3920831199
N       -1.0684703992    1.6913965662    0.1402118930
C        0.9675282893    0.3260912559   -0.4311989523
C       -0.0872555962    0.6703812079    0.6225126182
C       -0.9976235218   -0.4379178938    1.1056906590
N       -2.2490632014   -0.1414977934    0.9846372133
C        1.3957511684   -1.0919286226   -0.7236547136
C        0.6558497130   -0.5305917364   -1.6274555275
H        1.6912625148    1.1386589726   -0.5440365541
H        0.4198165842    1.1069872993    1.4980742130
H       -0.6723463637   -1.3813879617    1.5401956700
H        1.9673428920   -1.9393681975   -0.3743975312
H        0.1540295285   -0.5635590357   -2.5826621078
13   
Iteration 25 Energy -340.92448724
C       -2.1856913165    1.1454595630    0.4051557219
N       -1.0830436835    1.6837404277    0.1293881537
C        0.9700502048    0.3237065901   -0.4327094847
C       -0.0925606507    0.6713367709    0.6106514624
C       -0.9924708780   -0.4365396105    1.1125674822
N       -2.2468266129   -0.1432836637    1.0102314532
C        1.3848018899   -1.0977837727   -0.7250249918
C        0.6674214808   -0.5235183532   -1.6385642403
H        1.7053600992    1.1277740499   -0.5310625384
H        0.4090269167    1.1227173021    1.4817449021
H       -0.6571099842   -1.3750987375    1.5498867043
H        1.9398228968   -1.9538686726   -0.3701897124
H        0.1812196375   -0.5446418936   -2.6020749121
13   
Iteration 24 Energy -340.92435068
C       -2.1943177290    1.1417927079    0.4183739350
N       -1.0964858229    1.6804181108    0.1226369785
C        0.9710496848    0.3242300552   -0.4361420123
C       -0.0968153531    0.6743445251    0.6019089550
C       -0.9882031909   -0.4350991216    1.1154530913
N       -2.2440891112   -0.1447026068    1.0285348894
C        1.3764422359   -1.1018109389   -0.7248944602
C        0.6767573586   -0.5191859703   -1.6465723322
H        1.7160539569    1.1204156699   -0.5243891858
H        0.4048661638    1.1291182207    1.4719424608
H       -0.6460005427   -1.3711824886    1.5527644401
H        1.9184163773   -1.9634747248   -0.3635758950
H        0.2023259726   -0.5348634388   -2.6160408647
13   
Iteration 23 Energy -340.92422571
C       -2.1995440821    1.1397706915    0.4298850597
N       -1.1052191170    1.6786835156    0.1216529215
C        0.9713094987    0.3241335950   -0.4381995162
C       -0.1002652243    0.6769372973    0.5944361465
C       -0.9845053684   -0.4345261019    1.1164069074
N       -2.2415630299   -0.1461578985    1.0419921768
C        1.3691610042   -1.1048656687   -0.7237226636
C        0.6833994857   -0.5169721706   -1.6523999424
H        1.7228508525    1.1148983764   -0.5194489162
H        0.4002112118    1.1372370506    1.4621535371
H       -0.6355064067   -1.3696204794    1.5505788630
H        1.9007883087   -1.9705332318   -0.3566197003
H        0.2188828668   -0.5289849756   -2.6267148732
13   
Iteration 22 Energy -340.92412644
C       -2.2033496137    1.1382414060    0.4377150283
N       -1.1125802143    1.6796113214    0.1189051548
C        0.9715468883    0.3251883095   -0.4412179201
C       -0.1010380124    0.6781002112    0.5927221684
C       -0.9822167201   -0.4337920275    1.1168464707
N       -2.2403212549   -0.1473651712    1.0507191630
C        1.3644174914   -1.1065244571   -0.7224621889
C        0.6874906485   -0.5162751897   -1.6558555285
H        1.7278198534    1.1118393345   -0.5180044551
H        0.3995243574    1.1416545754    1.4587393038
H       -0.6301062904   -1.3697328667    1.5465469350
H        1.8896808392   -1.9744399018   -0.3515795205
H        0.2291320276   -0.5265055439   -2.6330746108
13   
Iteration 21 Energy -340.92395310
C       -2.2042281985    1.1361389816    0.4424335168
N       -1.1171940351    1.6815972054    0.1177785638
C        0.9697121646    0.3269265063   -0.4440587767
C       -0.0989703922    0.6742604006    0.5951750649
C       -0.9832662156   -0.4320283836    1.1167138771
N       -2.2398245953   -0.1496030950    1.0554635187
C        1.3625670720   -1.1080457759   -0.7219898900
C        0.6883681143   -0.5157545669   -1.6564999567
H        1.7346630184    1.1052263760   -0.5170862135
H        0.3935612306    1.1511834018    1.4588923293
H       -0.6233941322   -1.3672897263    1.5393546771
H        1.8848239025   -1.9774526171   -0.3508421186
H        0.2331820665   -0.5251587068   -2.6353345924
13   
Iteration 20 Energy -340.92334731
C       -2.2258230739    1.1377020216    0.4759290819
N       -1.1482490623    1.6837909961    0.1170604133
C        0.9813893920    0.3174140506   -0.4345687024
C       -0.1156999439    0.6988788778    0.5718720731
C       -0.9699584100   -0.4245162449    1.1069414919
N       -2.2326078846   -0.1551154191    1.0696259301
C        1.3614663580   -1.1249249664   -0.7220201116
C        0.6998709473   -0.5162982260   -1.6539712728
H        1.7536804764    1.0889252200   -0.5015259212
H        0.3772689796    1.1707002932    1.4387663635
H       -0.5972066138   -1.3598989620    1.5203696388
H        1.8705693143   -2.0043722009   -0.3554206112
H        0.2452995209   -0.5122854400   -2.6330583734
13   
Iteration 19 Energy -340.92152470
C       -2.2466248402    1.1387129340    0.4931426151
N       -1.1914906176    1.7097719348    0.1098459923
C        0.9997017997    0.3045767687   -0.4217821048
C       -0.1087579043    0.6993082228    0.5682577192
C       -0.9629215789   -0.4219176635    1.1001964939
N       -2.2273780249   -0.1584998951    1.0712459299
C        1.3722810095   -1.1393250769   -0.7295422859
C        0.7042510079   -0.5185675296   -1.6476538973
H        1.7765843519    1.0709988396   -0.4895321311
H        0.3613763726    1.1999623030    1.4299791909
H       -0.5894423038   -1.3599484319    1.5073711153
H        1.8784716900   -2.0243678131   -0.3724769893
H        0.2339490381   -0.5007045928   -2.6190516482
13   
Iteration 18 Energy -340.91879546
C       -2.2580257095    1.1394287383    0.4952014912
N       -1.2250305607    1.7333455004    0.0957310324
C        1.0105599860    0.2989760733   -0.4160103978
C       -0.0962781422    0.6950814873    0.5705156132
C       -0.9616454404   -0.4229097444    1.0969240000
N       -2.2246451490   -0.1569012634    1.0667204796
C        1.3785063501   -1.1418768458   -0.7327205564
C        0.7065212819   -0.5188162385   -1.6461685034
H        1.7814218561    1.0710659652   -0.4897216271
H        0.3752710607    1.1881218015    1.4346247762
H       -0.5978985282   -1.3609944340    1.5144904978
H        1.8860585421   -2.0269781587   -0.3775588063
H        0.2251844532   -0.4975428812   -2.6120279994
13   
Iteration 17 Energy -340.91569509
C       -2.2627399789    1.1425025964    0.4913941142
N       -1.2491577303    1.7468508086    0.0818855686
C        1.0177740786    0.2955582772   -0.4127457914
C       -0.0890484977    0.6984585352    0.5684495329
C       -0.9575699908   -0.4240909717    1.0951980645
N       -2.2254803926   -0.1527946557    1.0614047570
C        1.3819996748   -1.1409003603   -0.7328851766
C        0.7084035576   -0.5194316668   -1.6464173805
H        1.7718272967    1.0837726499   -0.4905914679
H        0.4036037692    1.1553732467    1.4417481085
H       -0.6119466328   -1.3621492258    1.5282896673
H        1.8918117485   -2.0241011532   -0.3767096599
H        0.2205230977   -0.4990480806   -2.6090203367
13   
Iteration 16 Energy -340.91224315
C       -2.2614888372    1.1478646153    0.4856938722
N       -1.2653144299    1.7524325024    0.0723158034
C        1.0219472010    0.2932005489   -0.4113099271
C       -0.0852555711    0.7046394170    0.5636351179
C       -0.9513721183   -0.4241696920    1.0944079738
N       -2.2285180508   -0.1482158439    1.0573565666
C        1.3836205581   -1.1395656024   -0.7324886437
C        0.7093950551   -0.5205768126   -1.6472478480
H        1.7589399336    1.0988546862   -0.4901664357
H        0.4271668078    1.1257864771    1.4493698416
H       -0.6228759633   -1.3666832502    1.5408297737
H        1.8956489898   -2.0215041943   -0.3744339006
H        0.2181064253   -0.5020628514   -2.6079621942
13   
Iteration 15 Energy -340.91133094
C       -2.2623942680    1.1490653023    0.4850845386
N       -1.2718287380    1.7568689128    0.0714252045
C        1.0230998099    0.2923005827   -0.4102645030
C       -0.0814205645    0.7033288155    0.5628731106
C       -0.9494063814   -0.4243680888    1.0941128439
N       -2.2277341696   -0.1478162005    1.0571862284
C        1.3844075825   -1.1410751082   -0.7334251392
C        0.7095283519   -0.5209942937   -1.6467582543
H        1.7595907341    1.0985137062   -0.4889578465
H        0.4243530227    1.1262309263    1.4503274444
H       -0.6213000047   -1.3671444651    1.5413511436
H        1.8959486090   -2.0237606762   -0.3760744579
H        0.2171560162   -0.5011494134   -2.6068803132
13   
Iteration 14 Energy -340.91103986
C       -2.2639382853    1.1495447867    0.4889823467
N       -1.2783352211    1.7608467095    0.0736213964
C        1.0255023000    0.2911480368   -0.4089867392
C       -0.0776538316    0.7008940086    0.5648560699
C       -0.9468254351   -0.4215233521    1.0982494051
N       -2.2265639322   -0.1483812082    1.0595789844
C        1.3852905027   -1.1440702799   -0.7326634538
C        0.7088121905   -0.5233327559   -1.6440247506
H        1.7630708276    1.0960463863   -0.4875607581
H        0.4194361677    1.1423631937    1.4458702219
H       -0.6185229682   -1.3740118920    1.5206606568
H        1.8947153592   -2.0276019209   -0.3751327053
H        0.2150123259   -0.5019217125   -2.6034506743
13   
Iteration 13 Energy -340.91085906
C       -2.2676120571    1.1486509847    0.4920344001
N       -1.2843837523    1.7655275667    0.0732975766
C        1.0266264675    0.2905180991   -0.4080058968
C       -0.0760868403    0.6998112781    0.5665180055
C       -0.9474211909   -0.4189762704    1.0997012877
N       -2.2251346033   -0.1493957466    1.0607555899
C        1.3859475111   -1.1458857011   -0.7323082773
C        0.7083058108   -0.5242389344   -1.6420669919
H        1.7683969179    1.0913454400   -0.4875799368
H        0.4175964803    1.1501152041    1.4453261430
H       -0.6147948414   -1.3757963126    1.5090124751
H        1.8949670625   -2.0300128395   -0.3756894089
H        0.2135930352   -0.5016627679   -2.6009949662
13   
Iteration 12 Energy -340.91062944
C       -2.2695266465    1.1480401480    0.4947874226
N       -1.2904686789    1.7692825304    0.0749157342
C        1.0282469597    0.2895334843   -0.4073824564
C       -0.0726827888    0.6961758984    0.5687352480
C       -0.9463857894   -0.4177705202    1.0993478857
N       -2.2241226668   -0.1509827506    1.0617907710
C        1.3864066078   -1.1486754635   -0.7332622648
C        0.7076964299   -0.5251873920   -1.6405898850
H        1.7744274863    1.0863187457   -0.4858432232
H        0.4111219222    1.1661303990    1.4441472815
H       -0.6110243485   -1.3785159604    1.5000099953
H        1.8939506723   -2.0343052472   -0.3775776820
H        0.2123608406   -0.5000438719   -2.5990788269
13   
Iteration 11 Energy -340.91012689
C       -2.2731378432    1.1458826323    0.4990199068
N       -1.3000978443    1.7767107653    0.0759451291
C        1.0309407507    0.2886189928   -0.4060040148
C       -0.0662201999    0.6893905657    0.5739969170
C       -0.9462506941   -0.4174565617    1.0982913982
N       -2.2216850248   -0.1536552242    1.0630811739
C        1.3876799653   -1.1518952719   -0.7346237208
C        0.7070323324   -0.5257234161   -1.6382681999
H        1.7843360925    1.0777979447   -0.4840749873
H        0.4009438243    1.1828239367    1.4389851292
H       -0.6071978849   -1.3768160127    1.4906114831
H        1.8934305166   -2.0387041436   -0.3809146308
H        0.2102260092   -0.4969742071   -2.5960455835
13   
Iteration 10 Energy -340.90927819
C       -2.2758676276    1.1439495179    0.5026089642
N       -1.3104969760    1.7853961741    0.0768711239
C        1.0334160894    0.2874264345   -0.4051000078
C       -0.0575157040    0.6788680501    0.5794454940
C       -0.9465199862   -0.4175659213    1.0959186590
N       -2.2195887598   -0.1559783132    1.0636006084
C        1.3885368774   -1.1554955700   -0.7372831057
C        0.7060853736   -0.5262023867   -1.6367822523
H        1.7953636919    1.0685446672   -0.4821856206
H        0.3893304186    1.2095583465    1.4384745906
H       -0.6029308963   -1.3807518884    1.4831464400
H        1.8924482258   -2.0445818765   -0.3852216468
H        0.2077392732   -0.4931672341   -2.5934932467
13   
Iteration 9 Energy -340.90808855
C       -2.2771842633    1.1414637940    0.5075605208
N       -1.3212431041    1.7947994306    0.0785062954
C        1.0367530715    0.2864106529   -0.4033384752
C       -0.0465023894    0.6672659740    0.5875249737
C       -0.9460113980   -0.4189011194    1.0950722138
N       -2.2168524016   -0.1583113818    1.0653598978
C        1.3902837611   -1.1586709308   -0.7393563680
C        0.7058483883   -0.5263705850   -1.6347485730
H        1.8058334166    1.0593228952   -0.4799095651
H        0.3731807858    1.2300555167    1.4278331844
H       -0.6016172685   -1.3790918896    1.4752926248
H        1.8921859877   -2.0487897133   -0.3893909646
H        0.2053254137   -0.4891826436   -2.5904057647
13   
Iteration 8 Energy -340.90683735
C       -2.2780006292    1.1395566842    0.5107491360
N       -1.3304052147    1.8032035297    0.0792363773
C        1.0390435440    0.2851693005   -0.4024001162
C       -0.0374141953    0.6555449574    0.5933070591
C       -0.9466572213   -0.4196145552    1.0930448183
N       -2.2153538597   -0.1597690473    1.0657566744
C        1.3910729874   -1.1615395550   -0.7420503019
C        0.7054091998   -0.5264972981   -1.6339717910
H        1.8150302765    1.0515763606   -0.4785071343
H        0.3622271203    1.2563202963    1.4262931472
H       -0.5998527381   -1.3847055579    1.4705225522
H        1.8915839205   -2.0537092245   -0.3934982289
H        0.2033168098   -0.4855358908   -2.5884821922
13   
Iteration 7 Energy -340.90567440
C       -2.2774327352    1.1380181187    0.5145806273
N       -1.3380853928    1.8102625544    0.0808751111
C        1.0413311335    0.2842874426   -0.4007338814
C       -0.0277556131    0.6464413213    0.5994859193
C       -0.9456052404   -0.4206804384    1.0929959806
N       -2.2132127913   -0.1607036000    1.0675891343
C        1.3926431430   -1.1637113090   -0.7435976001
C        0.7055576244   -0.5265781896   -1.6326139994
H        1.8217230054    1.0452101886   -0.4766366489
H        0.3470054887    1.2702458046    1.4158667896
H       -0.5994896119   -1.3834776859    1.4650286061
H        1.8916906282   -2.0565624576   -0.3965945532
H        0.2016303615   -0.4827517496   -2.5862454854
13   
Iteration 6 Energy -340.90473995
C       -2.2771802155    1.1369053357    0.5169215567
N       -1.3439222778    1.8156413276    0.0817536594
C        1.0429836481    0.2834425138   -0.3998777878
C       -0.0211666968    0.6387615153    0.6037381596
C       -0.9455771848   -0.4212717073    1.0921491706
N       -2.2122281024   -0.1613689879    1.0682198244
C        1.3934081607   -1.1654558151   -0.7452332182
C        0.7055384620   -0.5265820767   -1.6320750217
H        1.8271227972    1.0406041719   -0.4754741516
H        0.3380949639    1.2854894229    1.4117821058
H       -0.5990240521   -1.3862929853    1.4622374744
H        1.8914743339   -2.0594917152   -0.3992011531
H        0.2004761636   -0.4803809998   -2.5849406185
13   
Iteration 5 Energy -340.90404168
C       -2.2767039957    1.1361456057    0.5188542115
N       -1.3482197023    1.8194153366    0.0827203812
C        1.0443163286    0.2828745714   -0.3990837605
C       -0.0160814695    0.6333287400    0.6072553046
C       -0.9451507153   -0.4218407652    1.0918595910
N       -2.2113892683   -0.1618789077    1.0690111248
C        1.3941626921   -1.1666831790   -0.7462526151
C        0.7056453588   -0.5265740342   -1.6314915718
H        1.8308409970    1.0372910215   -0.4743727131
H        0.3305017935    1.2947312363    1.4064255346
H       -0.5990328055   -1.3868346800    1.4599432120
H        1.8914296158   -2.0613110073   -0.4010182952
H        0.1996811709   -0.4786639381   -2.5838504040
13   
Iteration 4 Energy -340.90354131
C       -2.2764309700    1.1356104021    0.5201760682
N       -1.3513131489    1.8221556668    0.0833315227
C        1.0452374680    0.2824559674   -0.3985396909
C       -0.0125415355    0.6294153519    0.6097075880
C       -0.9449461628   -0.4221871601    1.0915695665
N       -2.2108269887   -0.1622196606    1.0694869322
C        1.3946636913   -1.1675504837   -0.7470110730
C        0.7057043196   -0.5265543205   -1.6311133263
H        1.8335223159    1.0349341084   -0.4736272774
H        0.3253880694    1.3015876298    1.4029765699
H       -0.5989712924   -1.3875654762    1.4584662884
H        1.8913920684   -2.0626642491   -0.4023263183
H        0.1991221658   -0.4774177764   -2.5830968499
13   
Iteration 3 Energy -340.90318780
C       -2.2762751864    1.1351980289    0.5211281886
N       -1.3534268727    1.8241008198    0.0837874001
C        1.0458549845    0.2821690334   -0.3981663401
C       -0.0100821359    0.6265966564    0.6114618536
C       -0.9448830859   -0.4224123992    1.0913179590
N       -2.2104235285   -0.1624799204    1.0698077305
C        1.3949955652   -1.1681681504   -0.7475652014
C        0.7057374199   -0.5265201934   -1.6308544899
H        1.8355162184    1.0331654253   -0.4731153904
H        0.3217247117    1.3066888395    1.4005966452
H       -0.5988310609   -1.3881797245    1.4574591324
H        1.8913457955   -2.0636619984   -0.4032810775
H        0.1987471752   -0.4764964171   -2.5825764101
13   
Iteration 2 Energy -340.90283766
C       -2.2762105452    1.1345943216    0.5222542098
N       -1.3546339896    1.8257200023    0.0847266671
C        1.0462765250    0.2819513428   -0.3979504028
C       -0.0078101293    0.6234396667    0.6133288179
C       -0.9452074185   -0.4226295019    1.0908750177
N       -2.2099872378   -0.1629485820    1.0701492454
C        1.3951896951   -1.1688716137   -0.7482885688
C        0.7057406791   -0.5263880581   -1.6306982095
H        1.8381407052    1.0307877835   -0.4726025814
H        0.3171424077    1.3142497027    1.3983889014
H       -0.5980970377   -1.3895304012    1.4563935840
H        1.8909279668   -2.0650481918   -0.4043785000
H        0.1985283792   -0.4753264708   -2.5821981808
13   
Iteration 1 Energy -340.89993495
C       -2.2784922853    1.1385816878    0.5171327307
N       -1.4135807436    1.8626263057    0.0562708275
C        1.0540655801    0.2747855986   -0.3904512480
C        0.0095086381    0.6173386189    0.6145506335
C       -0.9406862925   -0.4193120796    1.0890495121
N       -2.2081014583   -0.1537867932    1.0653335354
C        1.4004030683   -1.1692823475   -0.7478003537
C        0.7046262077   -0.5291958939   -1.6272222200
H        1.8318812218    1.0373108064   -0.4746046180
H        0.3542407263    1.2694181474    1.4207429022
H       -0.6115514433   -1.3898336338    1.4600469099
H        1.9091431260   -2.0599525179   -0.4089794709
H        0.1885436547   -0.4786978990   -2.5740691406
13   
Iteration 0 Energy -340.89946860
C       -2.2631749585    1.1399791536    0.5294122339
N       -1.4300849670    1.8746520082    0.0515926199
C        1.0624237858    0.2686365671   -0.3865284048
C        0.0343722025    0.5816131468    0.6313418370
C       -0.9412716075   -0.4248108791    1.0979086326
N       -2.2103149323   -0.1449773592    1.0795851226
C        1.4134136886   -1.1709916052   -0.7579382813
C        0.7119598968   -0.5283596273   -1.6304773726
H        1.8385164660    1.0331813900   -0.4657654570
H        0.3148370191    1.3175638125    1.3866448281
H       -0.6322733924   -1.4071361828    1.4558556842
H        1.9146815384   -2.0660773731   -0.4193908153
H        0.1869152605   -0.4732730516   -2.5722406272
13   
Iteration 1 Energy -340.90010123
C       -2.2476726180    1.1335215772    0.5393590073
N       -1.4544071819    1.8937639767    0.0587368690
C        1.0702348170    0.2655562551   -0.3785397625
C        0.0626489274    0.5645327836    0.6510058272
C       -0.9260981617   -0.4279258798    1.0957738145
N       -2.2003936757   -0.1501855149    1.0768349809
C        1.4126748161   -1.1743569070   -0.7566847288
C        0.7090885570   -0.5280888646   -1.6244121072
H        1.8507423543    1.0252195251   -0.4592194051
H        0.2798458767    1.3693610896    1.3506595374
H       -0.6282552701   -1.4254182955    1.4201226484
H        1.8983448822   -2.0764061399   -0.4136917463
H        0.1732466767   -0.4695736055   -2.5599449347
13   
Iteration 2 Energy -340.90370304
C       -2.2315410089    1.1312886055    0.5415325022
N       -1.5024171511    1.9272787066    0.0454608086
C        1.0832466856    0.2594908742   -0.3715439406
C        0.0854824514    0.5350989015    0.6639883030
C       -0.9243900660   -0.4318293367    1.0933905917