13   
Iteration 1 Energy -340.92501835
C       -2.1253079348    1.2818694559    0.4638327256
N       -0.9819064394    1.7733379770    0.2840190942
C        0.9280813135    0.3387762898   -0.4624247053
C       -0.0750153952    0.6445950397    0.6525584072
C       -1.0576434347   -0.4459990936    1.0178859812
N       -2.2869214291   -0.0614361034    0.9115432220
C        1.4898826200   -1.0404928606   -0.6949070857
C        0.6315505496   -0.6295082051   -1.5756805616
H        1.5486288671    1.2148648295   -0.6724376776
H        0.4750060716    0.9572519570    1.5544279493
H       -0.7997747461   -1.4500077382    1.3484514393
H        2.1760699088   -1.7949700846   -0.3386480426
H        0.0773500487   -0.7882814632   -2.4886207463
13   
Iteration 2 Energy -340.96809783
C       -1.4761339403   -1.6035987713    0.0488098719
N       -1.7141454460   -2.1847282225   -0.9485770898
C        0.6005725540    0.9693623056   -0.5156245106
C       -0.0082954375    0.9944146012    0.8222562146
C       -0.7558980730    0.0686448612    1.5598132898
N       -1.3449607511   -1.0823601150    1.2427686564
C        1.6273673166   -0.1134719312   -0.8928075198
C        0.5082408525   -0.1633767638   -1.5257513291
H        0.7921100579    1.9791930317   -0.8902568231
H        0.2145161034    1.9024244058    1.3830845157
H       -0.9025603260    0.3306767468    2.6077293350
H        2.6171958462   -0.4704578259   -0.6557599907
H       -0.1580087567   -0.6267223225   -2.2356846203
