13   
IRC product Energy -340.92257153
C       -2.5462941373    1.6580219518   -0.3478110073
N       -1.6280463594    1.0821137153    0.1150244657
C        0.7082686102    0.5753306514   -0.3314283205
C       -0.4845766551    0.4099958869    0.6346256938
C       -0.7812614975   -1.0578129569    0.9520930264
N       -1.8616939330   -1.6512629767    0.7532264872
C        1.7767229604   -0.4686974620   -0.4987682658
C        0.9395317871   -0.3586532182   -1.4832423835
H        0.9608583163    1.6354930445   -0.4389947495
H       -0.2270403448    0.8902162521    1.5902303906
H        0.0648853883   -1.5992020172    1.4040652848
H        2.6547067284   -0.9236301272   -0.0643846595
H        0.6010019020   -0.6521978741   -2.4651521698
