13   
Iteration 0 Energy -340.92429178
C       -2.2986069332   -0.8387543891    0.4302484490
N       -1.9668951413    0.3115390771    0.0427619890
C        0.4309337025    0.8949758418   -0.5045312149
C       -0.5703014387    0.4492554511    0.5632265515
C       -0.3491943532   -0.8910335254    1.2284034101
N       -1.3914921478   -1.6544565619    1.1620634335
C        1.7398417020    0.1750200088   -0.7362173041
C        0.8320719020   -0.0024799444   -1.6458633352
H        0.3746950461    1.9714791738   -0.6842196073
H       -0.6086168527    1.2195106909    1.3496749974
H        0.5592268789   -1.2020591648    1.7391487588
H        2.7350812490   -0.0054393502   -0.3599893558
H        0.5132563864   -0.4275573077   -2.5847067720
13   
Iteration 1 Energy -340.92440302
C       -2.2907145113   -0.8291315453    0.4119902963
N       -1.9612322280    0.3271260494    0.0423382923
C        0.4332810917    0.8995678991   -0.4972977011
C       -0.5676821640    0.4547148994    0.5696236676
C       -0.3515747210   -0.8950236574    1.2186718504
N       -1.3896366595   -1.6596996711    1.1366975020
C        1.7424606648    0.1859215167   -0.7356893563
C        0.8225070662   -0.0176680414   -1.6249780601
H        0.3700777244    1.9745172324   -0.6890194286
H       -0.6050922322    1.2195358347    1.3618674276
H        0.5558380489   -1.2147877222    1.7273989851
H        2.7451076129    0.0196219171   -0.3697467427
H        0.4918115099   -0.4659257750   -2.5495046636
13   
Iteration 2 Energy -340.92448779
C       -2.2919664235   -0.8186566183    0.4036029254
N       -1.9603400108    0.3416778642    0.0506263915
C        0.4295529299    0.8954656722   -0.4965407031
C       -0.5659437391    0.4583400629    0.5787838915
C       -0.3526219391   -0.8986094087    1.2142054394
N       -1.3912571668   -1.6600910165    1.1190480612
C        1.7432518836    0.1922644078   -0.7347336485
C        0.8230617368   -0.0268479413   -1.6183211592
H        0.3549499281    1.9682625903   -0.6981652142
H       -0.5964260245    1.2197827762    1.3747949321
H        0.5549019306   -1.2271316609    1.7183823127
H        2.7493907488    0.0400514336   -0.3707891725
H        0.4928142292   -0.4877450369   -2.5371084908
13   
Iteration 3 Energy -340.92462617
C       -2.2984761034   -0.7911467992    0.3891442322
N       -1.9592936105    0.3795481624    0.0818321257
C        0.4178195815    0.8927857310   -0.4997499749
C       -0.5578790610    0.4679151051    0.6002320539
C       -0.3563311143   -0.9106073209    1.1922692613
N       -1.3971860778   -1.6644139302    1.0706014586
C        1.7432197690    0.2119587890   -0.7245610057
C        0.8248161258   -0.0512416190   -1.5976755311
H        0.3123002202    1.9569976345   -0.7335733702
H       -0.5607179488    1.2188911826    1.4056686953
H        0.5518834734   -1.2633178279    1.6790771594
H        2.7543871874    0.0956451820   -0.3606796550
H        0.4989820265   -0.5518699801   -2.4972148587
13   
Iteration 4 Energy -340.92472284
C       -2.3143952966   -0.7636362428    0.3932188013
N       -1.9635520297    0.4087665960    0.1089993314
C        0.4099081584    0.8851761032   -0.5042237487
C       -0.5536373778    0.4656552399    0.6107763758
C       -0.3644436788   -0.9255128246    1.1776380444
N       -1.4169255243   -1.6621272393    1.0488010878
C        1.7523282979    0.2356654701   -0.7228667891
C        0.8365510271   -0.0676909517   -1.5873996939
H        0.2755480579    1.9412116477   -0.7575689224
H       -0.5274151764    1.2101082996    1.4203362307
H        0.5419128808   -1.2989793323    1.6513020243
H        2.7680473705    0.1549745257   -0.3634936483
H        0.5201949286   -0.5964293170   -2.4738476536
13   
Iteration 5 Energy -340.92485820
C       -2.3445426180   -0.7169093190    0.4208007611
N       -1.9702745322    0.4529675620    0.1578463424
C        0.3938860297    0.8742859472   -0.5185502907
C       -0.5461175290    0.4569807310    0.6193774667
C       -0.3803728189   -0.9511876686    1.1481752768
N       -1.4557481415   -1.6564539957    1.0282322509
C        1.7640292412    0.2771520709   -0.7169551052
C        0.8626716926   -0.0901306375   -1.5741977390
H        0.2136130643    1.9152791027   -0.8017414440
H       -0.4667169820    1.1879597494    1.4367004638
H        0.5249339387   -1.3598150395    1.5923083065
H        2.7825633355    0.2523180404   -0.3588227639
H        0.5723840514   -0.6622345422   -2.4422742868
13   
Iteration 6 Energy -340.92494921
C       -2.3691236907   -0.6871846291    0.4544667374
N       -1.9757134777    0.4765027672    0.1890615639
C        0.3841397658    0.8683125789   -0.5318735901
C       -0.5423214127    0.4462603770    0.6152892066
C       -0.3916045429   -0.9687149664    1.1267340792
N       -1.4867411239   -1.6485055450    1.0315157783
C        1.7718481261    0.3066948220   -0.7132871992
C        0.8846594532   -0.1017751565   -1.5676101527
H        0.1775780934    1.8998022321   -0.8307112578
H       -0.4285039821    1.1642781466    1.4407480117
H        0.5149774022   -1.4006788462    1.5448512009
H        2.7900613873    0.3158622259   -0.3537735945
H        0.6167340177   -0.6981213890   -2.4265775610
13   
Iteration 7 Energy -340.92500010
C       -2.3831369347   -0.6726129632    0.4859736658
N       -1.9789671397    0.4844909084    0.2042730390
C        0.3790828389    0.8644453114   -0.5428777023
C       -0.5411768469    0.4381865293    0.6061591489
C       -0.3986385818   -0.9783025257    1.1146819328
N       -1.5049160317   -1.6436140541    1.0473314923
C        1.7759226023    0.3219472657   -0.7113798657
C        0.9010115615   -0.1048546185   -1.5688084870
H        0.1610969947    1.8919904527   -0.8473367635
H       -0.4132197894    1.1460063112    1.4398928196
H        0.5107765175   -1.4226486008    1.5131209368
H        2.7923062001    0.3463922276   -0.3468332787
H        0.6496429164   -0.7074820646   -2.4285870056
13   
Iteration 8 Energy -340.92501221
C       -2.3868283820   -0.6686128398    0.4939103284
N       -1.9792629601    0.4861285161    0.2067848489
C        0.3777879328    0.8650131555   -0.5460421932
C       -0.5400423799    0.4358040961    0.6019394901
C       -0.3976779278   -0.9817690282    1.1091127141
N       -1.5079427421   -1.6413474097    1.0505490582
C        1.7761669883    0.3267374382   -0.7097699197
C        0.9044474650   -0.1074440692   -1.5661358384
H        0.1564472430    1.8910967963   -0.8541035052
H       -0.4118342650    1.1380298153    1.4411080179
H        0.5138025294   -1.4304157911    1.4987059537
H        2.7918757277    0.3554693546   -0.3429669748
H        0.6570637298   -0.7124093304   -2.4255929592
