3    
Image 1/11, Energy =   -92.3396907342 (+9.017 kcal/mol)
C       -0.7404826979   -0.8145629256    0.0000000000
N        0.0395802153    0.0435504208    0.0000000000
H        0.7009024826    0.7710125048   -0.0000000000
3    
Image 11/11, Energy =   -92.3540601665 (+0.000 kcal/mol)
C        0.0194876257    0.0214346630   -0.0000000000
N       -0.7454621472   -0.8199441009    0.0000000000
H        0.7259745215    0.7985094380   -0.0000000000
