13   
Iteration 1 Energy -340.97576472
C       -2.2144597013    1.3780127056    1.6761083841
N       -2.4319376209    2.4518454424    2.1014802808
C        1.1897242356    0.1186201164   -0.6630611506
C        0.0390332839    0.5672137151    0.1339653892
C       -1.0245401402   -0.2393692494    0.5315585015
N       -2.0850949643    0.1319072532    1.2544452144
C        1.6993499742   -1.3211462964   -0.5915731204
C        1.0669917664   -1.0227963190   -1.6728106040
H        1.9146087794    0.9085359045   -0.8689889811
H        0.0198053180    1.6133135413    0.4356796720
H       -1.0298761328   -1.2888187870    0.2432142010
H        2.2135212765   -2.0189309088    0.0523103230
H        0.6428739253   -1.2783871179   -2.6323281099
