13   
Iteration 0 Energy -340.97576514
C       -2.2144597013    1.3780127056    1.6761083841
N       -2.4319376209    2.4518454424    2.1014802808
C        1.1897242356    0.1186201164   -0.6630611506
C        0.0390332839    0.5672137151    0.1339653892
C       -1.0245401402   -0.2393692494    0.5315585015
N       -2.0850949643    0.1319072532    1.2544452144
C        1.6993499742   -1.3211462964   -0.5915731204
C        1.0669917664   -1.0227963190   -1.6728106040
H        1.9146087794    0.9085359045   -0.8689889811
H        0.0198053180    1.6133135413    0.4356796720
H       -1.0298761328   -1.2888187870    0.2432142010
H        2.2135212765   -2.0189309088    0.0523103230
H        0.6428739253   -1.2783871179   -2.6323281099
13   
Iteration 1 Energy -340.97576493
C       -2.2154146809    1.3757519004    1.6760628885
N       -2.4342198875    2.4490879830    2.1020248568
C        1.1901309208    0.1190867855   -0.6631426138
C        0.0395876156    0.5679719198    0.1338141826
C       -1.0233846081   -0.2397462574    0.5308122575
N       -2.0845474925    0.1300552055    1.2536494097
C        1.6986359805   -1.3210536956   -0.5911074703
C        1.0662742294   -1.0226604010   -1.6724012141
H        1.9154509934    0.9084987581   -0.8694263362
H        0.0200536065    1.6140604754    0.4355975988
H       -1.0276705895   -1.2890803355    0.2420014021
H        2.2122776420   -2.0190101019    0.0529914362
H        0.6417625725   -1.2783614152   -2.6317001195
13   
Iteration 2 Energy -340.97576508
C       -2.2161844373    1.3742340184    1.6760865092
N       -2.4351241838    2.4475612078    2.1020203883
C        1.1900003777    0.1191058982   -0.6630200769
C        0.0388933608    0.5667076239    0.1338525123
C       -1.0239685114   -0.2412184393    0.5308362611
N       -2.0851805584    0.1285525290    1.2536844713
C        1.6995558369   -1.3207165653   -0.5915619948
C        1.0672100582   -1.0222619934   -1.6728904113
H        1.9147965326    0.9091178215   -0.8687764699
H        0.0188395352    1.6127392149    0.4357884587
H       -1.0281400919   -1.2905620343    0.2420903876
H        2.2135028625   -2.0186452540    0.0523066996
H        0.6431753998   -1.2778290499   -2.6324236344
