13   
Iteration 0 Energy -340.92257159
C       -2.5925147339    1.6227026393   -0.4178798847
N       -1.6565230092    1.0999117850    0.0716897805
C        0.6791798756    0.5933352477   -0.3788143994
C       -0.4927242589    0.4890083336    0.6208878077
C       -0.7593932813   -0.9525811991    1.0613541805
N       -1.8334816262   -1.5761072474    0.9324656248
C        1.7594118508   -0.4466198558   -0.4848647239
C        0.9021807931   -0.4255952087   -1.4579271909
H        0.9141449162    1.6448916492   -0.5745792441
H       -0.2253450086    1.0486052492    1.5294336627
H        0.1037775217   -1.4430508369    1.5385588001
H        2.6519912627   -0.8543266028   -0.0336716763
H        0.5492956980   -0.8001739535   -2.4066527371
13   
Iteration 1 Energy -340.92257160
C       -2.5923045715    1.6229571280   -0.4185529420
N       -1.6564345999    1.1000961463    0.0711745217
C        0.6793152619    0.5933835418   -0.3789123636
C       -0.4927781466    0.4891022034    0.6205716701
C       -0.7596223783   -0.9524852116    1.0609460777
N       -1.8336890194   -1.5760143663    0.9318836733
C        1.7594823165   -0.4466562362   -0.4847761597
C        0.9024414936   -0.4255401050   -1.4580050988
H        0.9143945516    1.6449274028   -0.5746097861
H       -0.2255300709    1.0486584105    1.5291813401
H        0.1034520353   -1.4429909617    1.5382839568
H        2.6519411734   -0.8544454904   -0.0334191425
H        0.5497085414   -0.8000703398   -2.4068064126
