13   
Iteration 0 Energy -340.82877921
C       -3.3103324676   -0.0054119808   -0.9198162386
N       -2.3591615397    0.0667346110   -0.2234207053
C        1.0594528654   -0.2610842855   -0.2350866053
C        0.1806851915    0.5025202811    0.6800304485
C       -0.5035118556   -0.1563836897    1.8372488174
N        0.4987828359    0.4679227876    2.2265284720
C        0.8312636346   -0.1777537111   -1.7322897197
C        1.8589994119    0.4774525194   -1.3051497339
H        1.4568301658   -1.1857139222    0.1918194861
H       -0.1992693237    1.4586186942    0.3343493860
H       -1.3132385581   -0.7935504349    2.1702685104
H        0.1610055280   -0.5038517091   -2.5128626062
H        2.7084256923    1.1241817874   -1.4612834050
13   
Iteration 1 Energy -340.82885976
C       -3.3068028322   -0.0058818105   -0.9213432412
N       -2.3582845933    0.0653399342   -0.2223626022
C        1.0583046983   -0.2551567706   -0.2369964903
C        0.1760378893    0.5006175794    0.6851207104
C       -0.5079473557   -0.1540445917    1.8371266223
N        0.4983733895    0.4645357726    2.2297115047
C        0.8287317059   -0.1766328604   -1.7326523153
C        1.8579650757    0.4761428987   -1.3080762433
H        1.4570950103   -1.1790757674    0.1918273839
H       -0.2040262666    1.4572455122    0.3407789929
H       -1.3187045674   -0.7885296158    2.1744894839
H        0.1587249797   -0.5026508234   -2.5142316885
H        2.7095700368    1.1200057514   -1.4695076248
13   
Iteration 2 Energy -340.82888991
C       -3.3037427200   -0.0068828209   -0.9259706695
N       -2.3593190427    0.0627371383   -0.2221535989
C        1.0580070113   -0.2569378874   -0.2343902702
C        0.1785607588    0.5043821714    0.6891519350
C       -0.5045278015   -0.1501262937    1.8337876056
N        0.5018434947    0.4672354653    2.2326365476
C        0.8210280318   -0.1771160166   -1.7268127225
C        1.8511845410    0.4757232169   -1.3039987174
H        1.4571190771   -1.1816077944    0.1948814358
H       -0.1979807717    1.4625464289    0.3432799060
H       -1.3143571507   -0.7842415584    2.1752074340
H        0.1494132557   -0.4989602791   -2.5090797116
H        2.7008396696    1.1215286010   -1.4705232776
13   
Iteration 3 Energy -340.82890142
C       -3.3032290628   -0.0078672211   -0.9294361841
N       -2.3601151954    0.0625631614   -0.2237034837
C        1.0563592732   -0.2551718606   -0.2337285385
C        0.1797417750    0.5050444707    0.6940192170
C       -0.5021485625   -0.1496476779    1.8402242653
N        0.5061718249    0.4656811538    2.2369789474
C        0.8184150396   -0.1775311158   -1.7265466123
C        1.8488839532    0.4763431955   -1.3050933917
H        1.4551219578   -1.1794308928    0.1961607123
H       -0.1949772727    1.4642553961    0.3485723963
H       -1.3113081824   -0.7824073217    2.1851757844
H        0.1472392176   -0.4997961471   -2.5086578914
H        2.6981531765    1.1215133484   -1.4741063919
13   
Iteration 4 Energy -340.82890699
C       -3.3006890765   -0.0095000839   -0.9341808861
N       -2.3602811814    0.0626399774   -0.2248472189
C        1.0558077411   -0.2549664397   -0.2313797760
C        0.1808734822    0.5051639550    0.6982800598
C       -0.5007382698   -0.1484238358    1.8462881151
N        0.5095804868    0.4650796469    2.2404647688
C        0.8121441042   -0.1767961878   -1.7232333033
C        1.8447485632    0.4768884936   -1.3056777421
H        1.4556244133   -1.1789322539    0.1978751942
H       -0.1924835868    1.4647874921    0.3523616572
H       -1.3095563984   -0.7795068904    2.1950137816
H        0.1382334784   -0.4976876193   -2.5033934390
H        2.6931082040    1.1219130704   -1.4789225085
13   
Iteration 5 Energy -340.82891279
C       -3.2943851201   -0.0122994819   -0.9417509060
N       -2.3595639141    0.0625252195   -0.2252969763
C        1.0517302467   -0.2533681698   -0.2280118614
C        0.1814620327    0.5081801010    0.7050868919
C       -0.4990031679   -0.1464305051    1.8536849401
N        0.5137728407    0.4643222076    2.2457445053
C        0.8011343996   -0.1765110632   -1.7186707960
C        1.8361592765    0.4771994461   -1.3068459107
H        1.4524966676   -1.1771394445    0.2006216500
H       -0.1904036963    1.4689884208    0.3608621054
H       -1.3074541507   -0.7762450649    2.2057603924
H        0.1234224009   -0.4966894310   -2.4958212632
H        2.6838172035    1.1214780897   -1.4861026331
13   
Iteration 6 Energy -340.82892397
C       -3.2754436054   -0.0194864619   -0.9598055655
N       -2.3566676804    0.0628642028   -0.2236762107
C        1.0408405211   -0.2502551349   -0.2209330740
C        0.1811088603    0.5141333522    0.7196544008
C       -0.4984755384   -0.1407291365    1.8693594317
N        0.5209863966    0.4617197703    2.2568626452
C        0.7730303711   -0.1758285581   -1.7083638221
C        1.8132840854    0.4782793975   -1.3102411598
H        1.4452439992   -1.1735795949    0.2051375779
H       -0.1874019725    1.4778496523    0.3800367431
H       -1.3081197116   -0.7661643420    2.2267164282
H        0.0851389397   -0.4951117422   -2.4769495733
H        2.6588026206    1.1216690571   -1.5023511964
13   
Iteration 7 Energy -340.82894026
C       -3.2400143787   -0.0315681213   -0.9885921878
N       -2.3519151001    0.0645521362   -0.2173391774
C        1.0211273068   -0.2447113021   -0.2111426850
C        0.1782102355    0.5238025378    0.7410086542
C       -0.5003366835   -0.1321514531    1.8914875762
N        0.5287552939    0.4574016419    2.2733617852
C        0.7265861754   -0.1749929127   -1.6933631178
C        1.7746629303    0.4793708793   -1.3169287070
H        1.4315079021   -1.1672764557    0.2107927819
H       -0.1852546080    1.4923992432    0.4098537299
H       -1.3130001031   -0.7512646867    2.2531234450
H        0.0218382774   -0.4941496007   -2.4466866780
H        2.6170819204    1.1210843308   -1.5275979768
13   
Iteration 8 Energy -340.82895974
C       -3.1959351165   -0.0450823787   -1.0190279914
N       -2.3483624717    0.0684832736   -0.2057215834
C        0.9986032111   -0.2396930540   -0.2030716190
C        0.1727803122    0.5322521059    0.7607855514
C       -0.5056114221   -0.1239603503    1.9117239698
N        0.5330220180    0.4515190769    2.2891193652
C        0.6764698821   -0.1746641693   -1.6795868717
C        1.7315178210    0.4803863820   -1.3252119372
H        1.4157870338   -1.1614857115    0.2139511828
H       -0.1847625385    1.5062644886    0.4390478125
H       -1.3232568852   -0.7360440068    2.2739558119
H       -0.0463483607   -0.4948770161   -2.4152511934
H        2.5701136946    1.1214546507   -1.5527335373
13   
Iteration 9 Energy -340.82897695
C       -3.1579904594   -0.0550647910   -1.0400435646
N       -2.3488513947    0.0747928765   -0.1908357658
C        0.9814637544   -0.2373031800   -0.2003498349
C        0.1656715803    0.5358126022    0.7706632739
C       -0.5128016401   -0.1207836152    1.9213342823
N        0.5307392446    0.4460510999    2.2980059414
C        0.6424044737   -0.1755161425   -1.6734468448
C        1.7008208547    0.4804958396   -1.3323345512
H        1.4033298380   -1.1585498712    0.2132930906
H       -0.1876016489    1.5137018615    0.4558516851
H       -1.3351980676   -0.7287719011    2.2792954183
H       -0.0924554037   -0.4978888362   -2.3962171493
H        2.5366067867    1.1224260715   -1.5678455694
13   
Iteration 10 Energy -340.82898544
C       -3.1394957149   -0.0586151008   -1.0478000552
N       -2.3533389919    0.0812644448   -0.1787912772
C        0.9750828706   -0.2383902861   -0.2020982947
C        0.1601821054    0.5336784647    0.7703787018
C       -0.5171631279   -0.1230476859    1.9213126030
N        0.5264236822    0.4427918191    2.2990770023
C        0.6331904499   -0.1772891234   -1.6749798735
C        1.6912875874    0.4797672709   -1.3354634426
H        1.3982977545   -1.1594138662    0.2107130178
H       -0.1918578977    1.5126808742    0.4575934031
H       -1.3413053767   -0.7308487599    2.2752373426
H       -0.1043138561   -0.5012802876   -2.3943455059
H        2.5257862685    1.1236869318   -1.5701096023
13   
Iteration 11 Energy -340.82898921
C       -3.1269401998   -0.0607046706   -1.0547881305
N       -2.3580269452    0.0859077054   -0.1715230299
C        0.9705745674   -0.2396764537   -0.2023658045
C        0.1567990633    0.5316083774    0.7717704447
C       -0.5175750764   -0.1254777456    1.9241227044
N        0.5264340850    0.4402938202    2.3006425006
C        0.6260810199   -0.1786727114   -1.6748394192
C        1.6843251371    0.4789985213   -1.3368488115
H        1.3946932145   -1.1605576613    0.2097821744
H       -0.1948876517    1.5110904378    0.4601293290
H       -1.3412213866   -0.7336558153    2.2785024251
H       -0.1127154237   -0.5028730549   -2.3927637542
H        2.5175202309    1.1242906905   -1.5722662879
13   
Iteration 12 Energy -340.82899252
C       -3.1139905162   -0.0615739048   -1.0629776049
N       -2.3642236729    0.0904666331   -0.1642618908
C        0.9654134902   -0.2421622798   -0.2022136710
C        0.1529698712    0.5282271956    0.7738593403
C       -0.5160956216   -0.1294954291    1.9288491279
N        0.5284017017    0.4372779869    2.3022879021
C        0.6188701735   -0.1805213302   -1.6742508952
C        1.6770708181    0.4779152231   -1.3373045904
H        1.3903860802   -1.1630529108    0.2089363426
H       -0.1994744244    1.5077039949    0.4633016605
H       -1.3375748733   -0.7388922660    2.2863140011
H       -0.1201536644   -0.5044258639   -2.3920995279
H        2.5085319337    1.1250417897   -1.5737138298
13   
Iteration 13 Energy -340.82899381
C       -3.1098113062   -0.0601991051   -1.0662276777
N       -2.3665102051    0.0907661916   -0.1619798237
C        0.9630732087   -0.2438024282   -0.2018225337
C        0.1511826988    0.5261394548    0.7750487401
C       -0.5146682369   -0.1320002499    1.9316005487
N        0.5299198501    0.4360314330    2.3028404840
C        0.6163065830   -0.1812538312   -1.6736443994
C        1.6744575471    0.4773299822   -1.3366862732
H        1.3883475532   -1.1648496637    0.2086153932
H       -0.2026903269    1.5051470699    0.4648267652
H       -1.3342617817   -0.7424791068    2.2917159953
H       -0.1221119280   -0.5047780426   -2.3923358823
H        2.5052016437    1.1252534831   -1.5733941695
13   
Iteration 14 Energy -340.82899481
C       -3.1062408138   -0.0573036660   -1.0692081189
N       -2.3677981692    0.0887607281   -0.1602029582
C        0.9604627971   -0.2454766872   -0.2011390576
C        0.1493686214    0.5239831057    0.7766842921
C       -0.5134662203   -0.1345734288    1.9346831810
N        0.5311790497    0.4348755430    2.3036319668
C        0.6133573873   -0.1816439334   -1.6726216583
C        1.6715966006    0.4768366925   -1.3357109931
H        1.3861290697   -1.1667937336    0.2082655527
H       -0.2064549849    1.5023436225    0.4668163087
H       -1.3311262647   -0.7461830221    2.2974344821
H       -0.1245812284   -0.5048559098   -2.3920095839
H        2.5017665958    1.1254252742   -1.5725923378
13   
Iteration 15 Energy -340.82899553
C       -3.1020400143   -0.0532175534   -1.0723366021
N       -2.3687010613    0.0847784226   -0.1579689606
C        0.9575116987   -0.2470812001   -0.2002955030
C        0.1473592730    0.5217237829    0.7787077422
C       -0.5128996372   -0.1373397459    1.9378664701
N        0.5316878713    0.4335296633    2.3048611456
C        0.6096138821   -0.1817484233   -1.6713449834
C        1.6680916959    0.4764373698   -1.3346748038
H        1.3836651375   -1.1687376891    0.2078375801
H       -0.2104919188    1.4994534571    0.4692551059
H       -1.3289250826   -0.7500478278    2.3025275731
H       -0.1283184186   -0.5048508189   -2.3908425315
H        2.4977775561    1.1256520007   -1.5715229542
13   
Iteration 16 Energy -340.82899604
C       -3.0961658864   -0.0473317336   -1.0762044550
N       -2.3699222553    0.0782593595   -0.1544225400
C        0.9539234622   -0.2489254090   -0.1991934829
C        0.1447852868    0.5187865550    0.7813952878
C       -0.5130092575   -0.1410697856    1.9415103170
N        0.5313518630    0.4313588780    2.3068102822
C        0.6046382297   -0.1816758748   -1.6697094777
C        1.6634456504    0.4761039970   -1.3334077870
H        1.3807028974   -1.1710263776    0.2072898993
H       -0.2152076514    1.4959132209    0.4724892329
H       -1.3275646252   -0.7550065744    2.3073810933
H       -0.1337844225   -0.5048670182   -2.3887014548
H        2.4925828927    1.1261342141   -1.5699232307
13   
Iteration 17 Energy -340.82899614
C       -3.0921300483   -0.0428964655   -1.0785392736
N       -2.3710281950    0.0728031078   -0.1514345846
C        0.9519226497   -0.2500481904   -0.1983773774
C        0.1430849676    0.5165885905    0.7832842356
C       -0.5137810383   -0.1441085606    1.9434897585
N        0.5302909662    0.4290734473    2.3084651873
C        0.6015429604   -0.1815504113   -1.6686161876
C        1.6604695849    0.4760707208   -1.3324597633
H        1.3791188458   -1.1724305549    0.2070328424
H       -0.2178356808    1.4935520659    0.4748221355
H       -1.3278811056   -0.7587484901    2.3090917072
H       -0.1374995005   -0.5049287428   -2.3868813939
H        2.4892520599    1.1267244846   -1.5684988051
13   
Iteration 18 Energy -340.82899611
C       -3.0906619644   -0.0408560056   -1.0792438378
N       -2.3717684189    0.0698862767   -0.1498112441
C        0.9515145495   -0.2505019168   -0.1978187264
C        0.1424134777    0.5152912723    0.7843318228
C       -0.5146734735   -0.1462101408    1.9440089286
N        0.5292272351    0.4268793838    2.3095921418
C        0.6005696742   -0.1815414709   -1.6680153194
C        1.6593555440    0.4762707608   -1.3318029421
H        1.3789822989   -1.1729498938    0.2071487289
H       -0.2184053769    1.4924615365    0.4762963380
H       -1.3290240892   -0.7610307295    2.3086418546
H       -0.1388978583   -0.5050157464   -2.3857743662
H        2.4879222573    1.1273122344   -1.5675377765
13   
Iteration 19 Energy -340.82899611
C       -3.0908813420   -0.0401490903   -1.0790435642
N       -2.3722541681    0.0687255002   -0.1491773091
C        0.9518351390   -0.2508283402   -0.1973680562
C        0.1422018867    0.5142457589    0.7849553392
C       -0.5153276443   -0.1480665918    1.9439615021
N        0.5284379634    0.4247256912    2.3103530546
C        0.6008677507   -0.1816813574   -1.6676475607
C        1.6593215219    0.4765124278   -1.3311159469
H        1.3795442267   -1.1732352941    0.2074268720
H       -0.2183240158    1.4916808582    0.4773689767
H       -1.3299902121   -0.7629760466    2.3076877207
H       -0.1386482739   -0.5051093801   -2.3853576616
H        2.4877216884    1.1278617979   -1.5665986696
