3    
Iteration 0 Energy -92.24601735
C       -0.0518086423   -0.6445962021    0.0000000000
N       -0.6782575425    0.3584393251    0.0000000000
H        0.7300661847    0.2861568770    0.0000000000
3    
Iteration 1 Energy -92.24601961
C       -0.0518400576   -0.6444525442   -0.0014226105
N       -0.6775335240    0.3591647666   -0.0030064628
H        0.7279573285    0.2853041086    0.0046380872
3    
Iteration 2 Energy -92.24601961
C       -0.0518495885   -0.6444470188   -0.0014253861
N       -0.6775204940    0.3591850610   -0.0030105903
H        0.7279786204    0.2853020297    0.0046420715
