13   
Climbing Image - Chain 45 Image 6 Energy  -340.9439688570 (+19.952 kcal/mol) RMSGrad 0.049 eV/Ang
C       -2.3142413129   -0.9369754308    0.4766772235
N       -3.3111711550   -0.6350893649   -0.0525122697
C        0.6364175387    1.0078917912   -0.4500002571
C        0.0141438200    0.6660818025    0.8365025569
C       -0.1911442849   -0.7196257938    1.2861026865
N       -1.2451214555   -1.4440936779    1.1180125608
C        1.8112993494    0.2075142080   -1.0285098878
C        0.6762141697    0.0254998150   -1.6149787139
H        0.5874088742    2.0773310931   -0.6740702086
H       -0.2151166829    1.4562610484    1.5484034371
H        0.6205282864   -1.2215071835    1.8246999253
H        2.8622292931   -0.0159141553   -0.9094541489
H        0.0704762614   -0.4722732778   -2.3598231608
