13   
IRC product Energy -340.92311720
C       -2.8109069250    0.3966215406   -0.4221015564
N       -1.8468104241    0.5794505062    0.2321110500
C        0.4574463904   -0.2286803257    0.5146762027
C       -0.6445623493    0.7620223092    0.9817142982
C       -0.9500303021    0.5637576144    2.4736767358
N       -0.6408225707    1.3921614135    3.3548147752
C        0.5994039390   -0.5520561673   -0.9435500450
C        1.5172159559    0.2182965772   -0.4504563529
H        0.6849528336   -0.9921117660    1.2647958564
H       -0.3106975467    1.7938588210    0.8344963818
H       -1.4483079479   -0.3831455976    2.7350427035
H        0.1540760944   -1.0814087072   -1.7718879824
H        2.4154485469    0.8056468111   -0.5677163976
