13   
Iteration 0 Energy -340.92311720
C       -2.8109069250    0.3966215406   -0.4221015564
N       -1.8468104241    0.5794505062    0.2321110500
C        0.4574463904   -0.2286803257    0.5146762027
C       -0.6445623493    0.7620223092    0.9817142982
C       -0.9500303021    0.5637576144    2.4736767358
N       -0.6408225707    1.3921614135    3.3548147752
C        0.5994039390   -0.5520561673   -0.9435500450
C        1.5172159559    0.2182965772   -0.4504563529
H        0.6849528336   -0.9921117660    1.2647958564
H       -0.3106975467    1.7938588210    0.8344963818
H       -1.4483079479   -0.3831455976    2.7350427035
H        0.1540760944   -1.0814087072   -1.7718879824
H        2.4154485469    0.8056468111   -0.5677163976
13   
Iteration 1 Energy -340.92314758
C       -2.8220118453    0.3901286117   -0.4127427695
N       -1.8539254481    0.5748792545    0.2351002669
C        0.4545278453   -0.2306993772    0.5117813201
C       -0.6481249280    0.7593652141    0.9790303155
C       -0.9476423592    0.5653716693    2.4723431588
N       -0.6311964300    1.4009747469    3.3441184188
C        0.6032951319   -0.5463512568   -0.9477547453
C        1.5219848678    0.2163013696   -0.4444502446
H        0.6773145973   -0.9974289721    1.2600263701
H       -0.3147641918    1.7912338923    0.8307359106
H       -1.4443449256   -0.3799851983    2.7420296958
H        0.1608027673   -1.0687493473   -1.7819544417
H        2.4239299961    0.7999632626   -0.5525279849
13   
Iteration 2 Energy -340.92328529
C       -2.8741158784    0.3530442018   -0.3629121529
N       -1.8856016995    0.5498781925    0.2499387714
C        0.4370098497   -0.2459091677    0.4963812843
C       -0.6624863286    0.7467729671    0.9632016265
C       -0.9287071689    0.5843658034    2.4660082440
N       -0.5890162468    1.4386802613    3.3111095150
C        0.6232215420   -0.5185078404   -0.9684285806
C        1.5408438722    0.2082624064   -0.4125167920
H        0.6331992647   -1.0325763681    1.2317146412
H       -0.3303525190    1.7767352360    0.7992522234
H       -1.4195737836   -0.3534750457    2.7681066864
H        0.1982498246   -1.0047206996   -1.8328869005
H        2.4575213321    0.7765716484   -0.4724879137
13   
Iteration 3 Energy -340.92381688
C       -3.0322228867    0.2235713848   -0.1770038652
N       -1.9838069512    0.4633491516    0.3086941575
C        0.3716316683   -0.2962915816    0.4381691680
C       -0.7098422177    0.7055242283    0.9111783257
C       -0.8589870283    0.6473811686    2.4374359161
N       -0.4441951418    1.5672055129    3.1745932032
C        0.6967488857   -0.4135379446   -1.0247970534
C        1.5902359410    0.1772767966   -0.2949643828
H        0.4664164290   -1.1581843267    1.1074601307
H       -0.3892365472    1.7263274680    0.6791499832
H       -1.3215180594   -0.2598375953    2.8529370900
H        0.3453541266   -0.7661369189   -1.9818378606
H        2.5413953836    0.6799287323   -0.1876761797
13   
Iteration 4 Energy -340.92439803
C       -3.2125754247    0.0540463591    0.1176381001
N       -2.1069433869    0.3503673570    0.4066512952
C        0.2795956580   -0.3473595774    0.3398030933
C       -0.7781928912    0.6550409744    0.8384027969
C       -0.7543450875    0.7294171624    2.3718269881
N       -0.2631735369    1.7186722260    2.9582759813
C        0.8130229248   -0.2558389465   -1.0649735577
C        1.6276749879    0.1113319005   -0.1257402638
H        0.2314734791   -1.3016964494    0.8772092832
H       -0.4937825404    1.6610185244    0.5121656137
H       -1.1516867560   -0.1330804813    2.9244807088
H        0.5937739110   -0.4093283111   -2.1097690729
H        2.5885539603    0.4827893647    0.2052289372
13   
Iteration 5 Energy -340.92526075
C       -3.2511649481    0.0018707310    0.2279815385
N       -2.1353054566    0.3196024297    0.4455136788
C        0.2408404845   -0.3610151078    0.2990280505
C       -0.7958628534    0.6483495422    0.8148052148
C       -0.7090959638    0.7585331667    2.3464802845
N       -0.1996658516    1.7600629824    2.8947054820
C        0.8587928729   -0.2083163676   -1.0653964888
C        1.6238734391    0.0900593985   -0.0623604414
H        0.1313401777   -1.3449682211    0.7702317653
H       -0.5343651466    1.6443630945    0.4415954314
H       -1.0809830740   -0.0932323787    2.9336355460
H        0.7000421125   -0.2997124968   -2.1285459992
H        2.5717788966    0.4160984503    0.3434182168
13   
Iteration 6 Energy -340.92632475
C       -3.2165603202   -0.0345974245    0.2383834809
N       -2.1112360129    0.3135718282    0.4576697873
C        0.2316104340   -0.3517608851    0.2966962802
C       -0.7825653301    0.6773952825    0.8191788134
C       -0.6846142056    0.7806636080    2.3549379304
N       -0.1946692622    1.7595956470    2.9545089155
C        0.8648145880   -0.2014800946   -1.0570157999
C        1.6275464267    0.0887311672   -0.0508573241
H        0.0621375309   -1.3501060969    0.7130894889
H       -0.5598481162    1.6583023911    0.3877848253
H       -1.0529847657   -0.0940372787    2.9140126964
H        0.7080901210   -0.2915853626   -2.1215906162
H        2.5781780839    0.4006387562    0.3527442468
13   
Iteration 7 Energy -340.92642085
C       -3.2486298845   -0.0973752212    0.3351954767
N       -2.1414266941    0.2749226411    0.4990831877
C        0.2071267671   -0.3520095543    0.2623465540
C       -0.8038845618    0.6690024571    0.8012988704
C       -0.6503095634    0.8047677711    2.3279292147
N       -0.1486479121    1.8061741004    2.8786375141
C        0.9050794055   -0.1389983697   -1.0513227836
C        1.6333561497    0.0506232243    0.0035300701
H       -0.0177701078   -1.3682153192    0.6029060591
H       -0.6094982546    1.6448505149    0.3462754687
H       -0.9845343116   -0.0621881046    2.9190756783
H        0.7939998427   -0.1568976839   -2.1251805070
H        2.5784919377    0.2916991581    0.4655907068
13   
Iteration 8 Energy -340.92648957
C       -3.2323474262   -0.0804154792    0.2829631425
N       -2.1293872547    0.2847310217    0.4868197070
C        0.2209608055   -0.3527078823    0.2799060781
C       -0.7939742860    0.6715996686    0.8136317649
C       -0.6660490771    0.7953791058    2.3416897595
N       -0.1704093345    1.7955213823    2.9001180950
C        0.8857146534   -0.1578135513   -1.0536515157
C        1.6338716315    0.0639685986   -0.0185702809
H        0.0122114988   -1.3647814264    0.6425438518
H       -0.5902340698    1.6514678699    0.3718320670
H       -1.0098555727   -0.0751586667    2.9218843883
H        0.7495693793   -0.2019027371   -2.1237507738
H        2.5859930303    0.3295124174    0.4156061068
13   
Iteration 9 Energy -340.92651523
C       -3.2231932553   -0.0752109870    0.2548215560
N       -2.1247014789    0.2880086241    0.4843273247
C        0.2262987461   -0.3495734619    0.2856521609
C       -0.7906288792    0.6737930137    0.8200088480
C       -0.6706442832    0.7930591321    2.3487736920
N       -0.1805701501    1.7909318881    2.9164575689
C        0.8785073427   -0.1641957453   -1.0558208278
C        1.6345017368    0.0675321563   -0.0286713491
H        0.0206475471   -1.3593351389    0.6560923254
H       -0.5853567597    1.6550651002    0.3823306899
H       -1.0159719913   -0.0807352436    2.9229372358
H        0.7329875221   -0.2211380903   -2.1239674095
H        2.5904720137    0.3389897586    0.3933517713
13   
Iteration 10 Energy -340.92653452
C       -3.2177991992   -0.0780910911    0.2376684031
N       -2.1241288978    0.2851814059    0.4887097928
C        0.2256150581   -0.3510624136    0.2863264770
C       -0.7899949536    0.6725715186    0.8218522331
C       -0.6667827739    0.7941950488    2.3500338554
N       -0.1787487125    1.7938952013    2.9165567327
C        0.8761272274   -0.1591187605   -1.0550274083
C        1.6325738638    0.0666656799   -0.0266440480
H        0.0169771142   -1.3619739429    0.6524755167
H       -0.5865984835    1.6533493803    0.3819440388
H       -1.0081036299   -0.0795476888    2.9266270027
H        0.7303527767   -0.2157030629   -2.1230582214
H        2.5896607073    0.3358497273    0.3943930810
13   
Iteration 11 Energy -340.92654166
C       -3.2201280931   -0.0787934721    0.2371049207
N       -2.1279243716    0.2842231798    0.4946935917
C        0.2214282826   -0.3506917680    0.2816402568
C       -0.7928442846    0.6720752767    0.8210320721
C       -0.6615224735    0.7950030729    2.3487303909
N       -0.1718808116    1.7961534955    2.9113402735
C        0.8801404847   -0.1554317549   -1.0552649681
C        1.6316972510    0.0640318600   -0.0221386429
H        0.0094710925   -1.3624648117    0.6434959031
H       -0.5919797411    1.6528090079    0.3796885250
H       -0.9975470807   -0.0784335783    2.9290037860
H        0.7413007509   -0.2104964117   -2.1243160618
H        2.5875753682    0.3279339852    0.4048882541
13   
Iteration 12 Energy -340.92654318
C       -3.2224516168   -0.0792215887    0.2403146934
N       -2.1298729337    0.2835173462    0.4967346806
C        0.2192626833   -0.3518772444    0.2796124715
C       -0.7941470692    0.6712586983    0.8192725145
C       -0.6583852127    0.7956093032    2.3466707135
N       -0.1673876976    1.7970702640    2.9074723410
C        0.8819016664   -0.1529056013   -1.0545472402
C        1.6313246546    0.0627219998   -0.0190906000
H        0.0072671275   -1.3643019426    0.6395504517
H       -0.5939176397    1.6515614741    0.3766014102
H       -0.9927789939   -0.0773767964    2.9286002663
H        0.7465008740   -0.2049162136   -2.1242607795
H        2.5859753445    0.3244330432    0.4118945554
13   
Iteration 13 Energy -340.92654335
C       -3.2227381866   -0.0783470935    0.2408033960
N       -2.1298925171    0.2839887445    0.4966595037
C        0.2190572564   -0.3519074829    0.2792456406
C       -0.7940509136    0.6713896513    0.8190544283
C       -0.6579019685    0.7951778686    2.3464833338
N       -0.1663965815    1.7965093190    2.9069851027
C        0.8821459730   -0.1531827560   -1.0546574092
C        1.6314401207    0.0627307943   -0.0191758689
H        0.0074314749   -1.3642957457    0.6393651852
H       -0.5935779706    1.6516751502    0.3765139630
H       -0.9922521809   -0.0780378638    2.9281170777
H        0.7471809773   -0.2051794776   -2.1244538530
H        2.5857450824    0.3245545725    0.4124512631
