13   
step_01 start
C       -0.8796316529    1.7076029401    0.4836125966
N       -1.4729191736    2.6825301629    0.2743869516
C        0.9354786726    0.3114545471   -0.4574243753
C       -0.0655283235    0.5057583940    0.7134261488
C       -0.9181817009   -0.7404158607    0.9656223287
N       -2.1660696081   -0.7930134029    0.9530751764
C        1.3774548748   -1.0437635120   -0.9329650625
C        0.5619751049   -0.4096469543   -1.7180122108
H        1.6287010363    1.1573586347   -0.5073086691
H        0.5168181512    0.6745571049    1.6322440990
H       -0.3365894319   -1.6515852266    1.1778408129
H        1.9957252621   -1.9051651741   -0.7271363399
H       -0.0000155338   -0.3514683266   -2.6378449392
13   
step_01 end
C       -2.2161844373    1.3742340184    1.6760865092
N       -2.4351241838    2.4475612078    2.1020203883
C        1.1900003777    0.1191058982   -0.6630200769
C        0.0388933608    0.5667076239    0.1338525123
C       -1.0239685114   -0.2412184393    0.5308362611
N       -2.0851805584    0.1285525290    1.2536844713
C        1.6995558369   -1.3207165653   -0.5915619948
C        1.0672100582   -1.0222619934   -1.6728904113
H        1.9147965326    0.9091178215   -0.8687764699
H        0.0188395352    1.6127392149    0.4357884587
H       -1.0281400919   -1.2905620343    0.2420903876
H        2.2135028625   -2.0186452540    0.0523066996
H        0.6431753998   -1.2778290499   -2.6324236344
