13   
step_00 start
C       -1.7781327029    2.5221279224   -0.0761843379
N       -1.0872633197    1.6406961753    0.2910302392
C        0.8278010285    0.3174582735   -0.4137183806
C       -0.2173242490    0.5857749247    0.6905290453
C       -0.9922539051   -0.6751661501    1.0814522118
N       -2.2306237237   -0.8257072014    1.0281508310
C        1.4065079491   -1.0442393610   -0.6793169676
C        0.5580996256   -0.6126585301   -1.5602682222
H        1.4394910130    1.2108821467   -0.5778287984
H        0.3112346461    0.9204124548    1.5953704175
H       -0.3565523831   -1.4978949281    1.4452479955
H        2.0992861777   -1.8002689754   -0.3402372414
H        0.0202279373   -0.7404543378   -2.4872412337
13   
step_00 end
C       -2.2161844373    1.3742340184    1.6760865092
N       -2.4351241838    2.4475612078    2.1020203883
C        1.1900003777    0.1191058982   -0.6630200769
C        0.0388933608    0.5667076239    0.1338525123
C       -1.0239685114   -0.2412184393    0.5308362611
N       -2.0851805584    0.1285525290    1.2536844713
C        1.6995558369   -1.3207165653   -0.5915619948
C        1.0672100582   -1.0222619934   -1.6728904113
H        1.9147965326    0.9091178215   -0.8687764699
H        0.0188395352    1.6127392149    0.4357884587
H       -1.0281400919   -1.2905620343    0.2420903876
H        2.2135028625   -2.0186452540    0.0523066996
H        0.6431753998   -1.2778290499   -2.6324236344
