13   
Climbing Image - Chain 66 Image 2 Energy  -340.9486686811 (+16.300 kcal/mol) RMSGrad 0.080 eV/Ang
C       -1.5896094487   -1.4191509865   -0.0352241643
N       -2.1808702581   -1.5743673480   -1.0375333264
C        0.4498176231    1.1699265797   -0.2047079693
C        0.3291564959    0.7190118334    1.1022666770
C       -0.2524501856   -0.4716295144    1.6489475882
N       -1.0322604045   -1.3998723946    1.1629758882
C        1.2479040885   -0.1014793038   -1.5460172811
C        0.0898365177    0.4569584440   -1.4624867371
H        0.8970743723    2.1542400726   -0.3303002629
H        0.7925542311    1.3516715708    1.8570853398
H        0.0018980203   -0.6420182774    2.6973033873
H        2.0840657081   -0.7188849447   -1.8117290155
H       -0.8348255843    0.4693808173   -2.0414062317
