13   
Iteration 0 Energy -340.94866868
C       -1.5896094487   -1.4191509865   -0.0352241643
N       -2.1808702581   -1.5743673480   -1.0375333264
C        0.4498176231    1.1699265797   -0.2047079693
C        0.3291564959    0.7190118334    1.1022666770
C       -0.2524501856   -0.4716295144    1.6489475882
N       -1.0322604045   -1.3998723946    1.1629758882
C        1.2479040885   -0.1014793038   -1.5460172811
C        0.0898365177    0.4569584440   -1.4624867371
H        0.8970743723    2.1542400726   -0.3303002629
H        0.7925542311    1.3516715708    1.8570853398
H        0.0018980203   -0.6420182774    2.6973033873
H        2.0840657081   -0.7188849447   -1.8117290155
H       -0.8348255843    0.4693808173   -2.0414062317
13   
Iteration 1 Energy -340.94870515
C       -1.5961499858   -1.4159205732   -0.0293164410
N       -2.1912919419   -1.5646947785   -1.0304266637
C        0.4482823938    1.1645393391   -0.2085191575
C        0.3289809883    0.7138810996    1.1000607059
C       -0.2521202461   -0.4746195058    1.6511685913
N       -1.0357712060   -1.4015648032    1.1670872997
C        1.2526398552   -0.0940565249   -1.5443690711
C        0.0890100286    0.4535751170   -1.4684098737
H        0.8944534383    2.1494409901   -0.3331620462
H        0.7944256949    1.3474602247    1.8528395181
H        0.0048688221   -0.6442056516    2.6988009774
H        2.0970530524   -0.7019084104   -1.8059067043
H       -0.8320074716    0.4616367014   -2.0507573673
13   
Iteration 2 Energy -340.94880579
C       -1.6050489479   -1.4089320600   -0.0224390239
N       -2.2064621288   -1.5461313090   -1.0215192592
C        0.4456222765    1.1575270966   -0.2115988545
C        0.3279068328    0.7086048824    1.0986420879
C       -0.2519276768   -0.4782865852    1.6537820335
N       -1.0398637192   -1.4034398610    1.1715694802
C        1.2618416830   -0.0868274502   -1.5444000776
C        0.0904985037    0.4446782353   -1.4725196204
H        0.8874504941    2.1443116833   -0.3364469080
H        0.7943148760    1.3442194873    1.8491439697
H        0.0081820520   -0.6477388626    2.7004196040
H        2.1168724780   -0.6787460602   -1.8080078224
H       -0.8271503238    0.4437644152   -2.0577853395
13   
Iteration 3 Energy -340.94893888
C       -1.6178529435   -1.3982882932   -0.0146422962
N       -2.2289178473   -1.5197774990   -1.0098787045
C        0.4418739017    1.1499251242   -0.2133759715
C        0.3256338422    0.7040988707    1.0982255874
C       -0.2518138190   -0.4825563125    1.6558274764
N       -1.0443229893   -1.4053028355    1.1755363818
C        1.2775297494   -0.0799243864   -1.5469241048
C        0.0965468864    0.4302264876   -1.4738497999
H        0.8746229668    2.1404548986   -0.3397170471
H        0.7909931718    1.3427405244    1.8468756611
H        0.0123442317   -0.6534028657    2.7010798151
H        2.1440057401   -0.6504709939   -1.8203583488
H       -0.8191998027    0.4145011089   -2.0605630690
13   
Iteration 4 Energy -340.94908199
C       -1.6381436987   -1.3815171449   -0.0051425298
N       -2.2636206708   -1.4819570498   -0.9937415655
C        0.4364438136    1.1409523924   -0.2165087146
C        0.3229721731    0.6987997433    1.0969177050
C       -0.2501208831   -0.4888733400    1.6558161576
N       -1.0498429412   -1.4070404192    1.1777948292
C        1.3001249922   -0.0691542293   -1.5468952147
C        0.1061537155    0.4103456846   -1.4751343006
H        0.8545317929    2.1372813549   -0.3455785564
H        0.7864893390    1.3409458371    1.8437858337
H        0.0219049319   -0.6645329326    2.6982108321
H        2.1805362790   -0.6130303755   -1.8306066202
H       -0.8085175556    0.3699224254   -2.0618592071
13   
Iteration 5 Energy -340.94919654
C       -1.6616937143   -1.3613481258    0.0042515226
N       -2.3025834927   -1.4399847906   -0.9764061684
C        0.4302834566    1.1331057697   -0.2202867908
C        0.3198238162    0.6943414244    1.0948886452
C       -0.2469802297   -0.4960123235    1.6535850632
N       -1.0554903559   -1.4078921135    1.1776713216
C        1.3249625672   -0.0567330412   -1.5449949739
C        0.1180754917    0.3901851403   -1.4766690398
H        0.8308972550    2.1361017655   -0.3522256963
H        0.7804642180    1.3399488825    1.8406329629
H        0.0365292912   -0.6799081141    2.6915067761
H        2.2170772647   -0.5772710909   -1.8366801082
H       -0.7965220862    0.3191798002   -2.0605186005
13   
Iteration 6 Energy -340.94927159
C       -1.6852371068   -1.3407853181    0.0126603968
N       -2.3395603261   -1.3999347390   -0.9604409598
C        0.4248740642    1.1268035938   -0.2243863757
C        0.3161621885    0.6911874194    1.0923095220
C       -0.2436076517   -0.5027756058    1.6498281734
N       -1.0619044187   -1.4073158490    1.1762758685
C        1.3478284559   -0.0439471089   -1.5429109849
C        0.1297966160    0.3725835486   -1.4785444130
H        0.8095770716    2.1355539326   -0.3589183515
H        0.7732294493    1.3399821618    1.8375769383
H        0.0536440492   -0.6969111977    2.6820592138
H        2.2485124023   -0.5475243010   -1.8388948541
H       -0.7856306055    0.2693070555   -2.0563349439
13   
Iteration 7 Energy -340.94930875
C       -1.8505871777   -1.2630668182    0.1481431034
N       -2.5289404482   -1.3482219069   -0.8063143412
C        0.3352889987    1.1068822763   -0.2733963149
C        0.2283706216    0.7597506874    1.0698193340
C       -0.3430106611   -0.3902318521    1.7030648188
N       -1.1990011043   -1.2930440390    1.2979386735
C        1.2444455628   -0.1356599810   -1.5272704212
C        0.0233435377    0.2736818066   -1.4730423537
H        0.7289734262    2.1005085753   -0.4756233262
H        0.7023650898    1.4459464893    1.7697727936
H       -0.0209888886   -0.5415762970    2.7350761495
H        2.1329617581   -0.6661156259   -1.8149512724
H       -0.9061635325    0.1120248540   -2.0138699735
13   
Iteration 8 Energy -340.94925537
C       -2.4900148255   -0.9264901683    0.3111862016
N       -3.1663506208   -0.9872349418   -0.6466527462
C       -0.1248974122    1.2392880159   -0.1761086516
C       -0.2781922416    0.9636386713    1.1795819236
C       -0.9357311377   -0.1161808761    1.8502348284
N       -1.8518752798   -0.9694060532    1.4682605411
C        0.7356774750   -0.1252988658   -1.3416493679
C       -0.4553798106    0.3669222743   -1.3410392821
H        0.3319345237    2.1967558591   -0.4166249449
H        0.2268222012    1.6500848481    1.8572931325
H       -0.6356503257   -0.2501664605    2.8912024727
H        1.6226737174   -0.7026928518   -1.5154972716
H       -1.3766513015    0.2384463879   -1.9048546056
13   
Iteration 9 Energy -340.94929791
C       -2.0942722015   -1.1302324218    0.1557883727
N       -2.7640528925   -1.1879364378   -0.8067976362
C        0.1845000425    1.1489003560   -0.2445311277
C        0.0426564960    0.8152472133    1.0990850150
C       -0.5769639342   -0.3111486103    1.7285633316
N       -1.4586873167   -1.1846871742    1.3136969704
C        1.0792764987   -0.1377699917   -1.4681268534
C       -0.1268725003    0.3158227192   -1.4435713435
H        0.6125114704    2.1282618882   -0.4467470766
H        0.5261861998    1.4909065672    1.8027637679
H       -0.2748080015   -0.4700635676    2.7654358527
H        1.9714912247   -0.6885400780   -1.6969864764
H       -1.0475713841    0.1824962683   -2.0070382872
13   
Iteration 10 Energy -340.94930800
C       -1.8984284091   -1.2323776584    0.1377953687
N       -2.5761123541   -1.3045773380   -0.8182426374
C        0.3127875024    1.1136853397   -0.2712430298
C        0.1965996251    0.7656298080    1.0710927164
C       -0.3867028801   -0.3807293246    1.6995313042
N       -1.2492136497   -1.2748747349    1.2885672609
C        1.2188754929   -0.1391861615   -1.5195965516
C        0.0024738078    0.2845226693   -1.4735581148
H        0.7155053461    2.1043439333   -0.4702784823
H        0.6727451141    1.4471534944    1.7741333010
H       -0.0690756520   -0.5381201271    2.7320112239
H        2.1140754930   -0.6713695939   -1.7801335274
H       -0.9235955264    0.1342473601   -2.0237105596
13   
Iteration 11 Energy -340.94931032
C       -1.8973284193   -1.2330274484    0.1361555876
N       -2.5723514066   -1.3078956988   -0.8215426758
C        0.3136934235    1.1143875658   -0.2702085114
C        0.1963085004    0.7667281378    1.0720603310
C       -0.3888976086   -0.3788990410    1.7003239771
N       -1.2508994729   -1.2730754807    1.2886020137
C        1.2177697781   -0.1394545116   -1.5180729913
C        0.0016905433    0.2852426529   -1.4722027022
H        0.7177894367    2.1044589049   -0.4693291464
H        0.6725643720    1.4478558601    1.7754093246
H       -0.0732916394   -0.5355338203    2.7335433301
H        2.1088800587   -0.6746223647   -1.7870474824
H       -0.9249202455    0.1359965179   -2.0216881592
13   
Iteration 12 Energy -340.94931051
C       -1.9201111568   -1.2510123863    0.1209907605
N       -2.5897162908   -1.3093044596   -0.8416471462
C        0.3380595021    1.0564604965   -0.2590679455
C        0.2030990873    0.7059729824    1.0808228228
C       -0.4084109737   -0.4308307133    1.7000284522
N       -1.2833685194   -1.3074759855    1.2781146218
C        1.2270797498   -0.2095915044   -1.5046087775
C        0.0191761841    0.2387041346   -1.4671667116
H        0.7631293368    2.0392047373   -0.4507348631
H        0.6867021542    1.3751852920    1.7905609180
H       -0.1040794750   -0.5969916138    2.7351402722
H        2.1069265249   -0.7639602646   -1.7722868513
H       -0.9059060354    0.1098917783   -2.0243094281
13   
Iteration 13 Energy -340.94931063
C       -1.9201785105   -1.2509669113    0.1209039877
N       -2.5888370322   -1.3099880257   -0.8423508718
C        0.3384680134    1.0561705568   -0.2589145478
C        0.2034459262    0.7057698915    1.0809782043
C       -0.4088107449   -0.4305653311    1.7003225896
N       -1.2840888632   -1.3068756016    1.2784105821
C        1.2268333505   -0.2097731262   -1.5053439547
C        0.0189868638    0.2386113752   -1.4669868210
H        0.7637760919    2.0387976214   -0.4506104754
H        0.6873690195    1.3747785588    1.7906911611
H       -0.1049197982   -0.5965340969    2.7355930332
H        2.1070887597   -0.7634749129   -1.7729971911
H       -0.9063757432    0.1099125762   -2.0236783394
