3    
Iteration 1 Energy -92.33969073
C       -0.7404836575   -0.8145621376   -0.0000000000
N        0.0395822033    0.0435490666   -0.0000000000
H        0.7009014543    0.7710130710   -0.0000000000
3    
Iteration 1 Energy -92.35406017
C        0.0194880536    0.0214351636    0.0000000000
N       -0.7454616114   -0.8199435313    0.0000000000
H        0.7259735578    0.7985083678   -0.0000000000
