13   
IRC reactant Energy -340.92501872
C       -2.4684853993    1.4618436856    0.5612082391
N       -1.3247181710    1.9522046588    0.3807445573
C        0.5840005804    0.5160874372   -0.3666556237
C       -0.4186827756    0.8225199134    0.7485698464
C       -1.4021442612   -0.2672163915    1.1142518379
N       -2.6311232190    0.1186102990    1.0088175619
C        1.1452715978   -0.8634462431   -0.5987796741
C        0.2869465079   -0.4524417594   -1.4795564266
H        1.2048978750    1.3918653505   -0.5769475999
H        0.1319268724    1.1346495835    1.6502656377
H       -1.1450675541   -1.2715225167    1.4445626168
H        1.8312599164   -1.6180430490   -0.2423926884
H       -0.2674543986   -0.6113536580   -2.3923523332
13   
IRC product Energy -340.92257160
C       -2.1495899583    2.6804897181    0.0197220586
N       -1.4468464948    1.8083780646    0.3866497716
C        0.4773795634    0.5020313962   -0.3244771182
C       -0.5629811436    0.7648711651    0.7855591964
C       -1.3216686321   -0.5022395143    1.1882378630
N       -2.5586921631   -0.6662212247    1.1442003925
C        1.0687243981   -0.8547852580   -0.5871897641
C        0.2097678791   -0.4367417248   -1.4644401509
H        1.0783731571    1.4010536816   -0.4972956888
H       -0.0318835762    1.1098129127    1.6850288912
H       -0.6747272935   -1.3162408080    1.5518531203
H        1.7718068999   -1.6016796855   -0.2490797269
H       -0.3330350650   -0.5749714129   -2.3870328935
