13   
Iteration 1 Energy -340.92501873
C       -2.4689954079    1.4605027254    0.5603555232
N       -1.3254503603    1.9514792763    0.3802319362
C        0.5838829606    0.5162522712   -0.3666245812
C       -0.4190036309    0.8222724495    0.7484630737
C       -1.4019050946   -0.2680471864    1.1138875653
N       -2.6310153379    0.1171470679    1.0078075654
C        1.1452124672   -0.8632437495   -0.5987836032
C        0.2868959542   -0.4522211229   -1.4795717099
H        1.2046438044    1.3921425285   -0.5768565326
H        0.1312615803    1.1346249420    1.6502903431
H       -1.1443819727   -1.2722143563    1.4442614788
H        1.8311886409   -1.6178480890   -0.2423872845
H       -0.2674991756   -0.6110930140   -2.3923773083
13   
Iteration 0 Energy -340.92501872
C       -2.4684853993    1.4618436856    0.5612082391
N       -1.3247181710    1.9522046588    0.3807445573
C        0.5840005804    0.5160874372   -0.3666556237
C       -0.4186827756    0.8225199134    0.7485698464
C       -1.4021442612   -0.2672163915    1.1142518379
N       -2.6311232190    0.1186102990    1.0088175619
C        1.1452715978   -0.8634462431   -0.5987796741
C        0.2869465079   -0.4524417594   -1.4795564266
H        1.2048978750    1.3918653505   -0.5769475999
H        0.1319268724    1.1346495835    1.6502656377
H       -1.1450675541   -1.2715225167    1.4445626168
H        1.8312599164   -1.6180430490   -0.2423926884
H       -0.2674543986   -0.6113536580   -2.3923523332
13   
Iteration 30 Energy -340.92501864
C       -2.4683775127    1.4625731434    0.5622239845
N       -1.3244814708    1.9524085794    0.3809970243
C        0.5837562244    0.5160753141   -0.3669082311
C       -0.4187921418    0.8223030698    0.7483345482
C       -1.4025227308   -0.2672866842    1.1139823549
N       -2.6312871897    0.1193332218    1.0093686542
C        1.1456896405   -0.8632173509   -0.5986781893
C        0.2871795790   -0.4528870547   -1.4796049501
H        1.2042359086    1.3920749926   -0.5775503585
H        0.1318832172    1.1337446458    1.6502457500
H       -1.1457182152   -1.2718260257    1.4437987701
H        1.8320475216   -1.6173512813   -0.2420018161
H       -0.2669852593   -0.6121872597   -2.3924715899
13   
Iteration 29 Energy -340.92501712
C       -2.4710540900    1.4526539692    0.5524928970
N       -1.3294160925    1.9476744243    0.3713379118
C        0.5867846084    0.5157077321   -0.3635841463
C       -0.4184669461    0.8247841736    0.7483752896
C       -1.3972816194   -0.2672532385    1.1198138502
N       -2.6278358103    0.1117475434    1.0091409694
C        1.1386888671   -0.8669296856   -0.6002570096
C        0.2860426672   -0.4456715931   -1.4816442451
H        1.2144582708    1.3878738780   -0.5687711975
H        0.1293651573    1.1451962113    1.6488034745
H       -1.1357517437   -1.2678542423    1.4578214825
H        1.8180391464   -1.6280787909   -0.2450842359
H       -0.2669448442   -0.5960930711   -2.3967090894
13   
Iteration 28 Energy -340.92501236
C       -2.4718245439    1.4440469000    0.5417951653
N       -1.3318727532    1.9443733738    0.3644715533
C        0.5891107193    0.5158974793   -0.3600420105
C       -0.4170631898    0.8274641613    0.7504524840
C       -1.3923196770   -0.2673011002    1.1233124895
N       -2.6242085521    0.1042977651    1.0039752350
C        1.1327070942   -0.8693517777   -0.6009914869
C        0.2828179490   -0.4401384304   -1.4811398789
H        1.2217979575    1.3850762366   -0.5624958961
H        0.1285982077    1.1543778433    1.6496926684
H       -1.1271970936   -1.2650280236    1.4672806785
H        1.8073142794   -1.6357216772   -0.2480162837
H       -0.2712328265   -0.5842354401   -2.3965587669
13   
Iteration 27 Energy -340.92499935
C       -2.4701865524    1.4378818284    0.5301549958
N       -1.3311802910    1.9436000976    0.3636773991
C        0.5901688617    0.5170367196   -0.3565260960
C       -0.4141311070    0.8302927580    0.7551788369
C       -1.3873460593   -0.2676611883    1.1230817899
N       -2.6197843878    0.0976914541    0.9910911476
C        1.1282758188   -0.8698535531   -0.6001208231
C        0.2765794277   -0.4375185915   -1.4769634875
H        1.2246255373    1.3844539651   -0.5607303485
H        0.1305350148    1.1599434081    1.6537470859
H       -1.1208034511   -1.2641104808    1.4690780421
H        1.8014539118   -1.6386336339   -0.2496991854
H       -0.2815791524   -0.5793654729   -2.3902334056
13   
Iteration 26 Energy -340.92498435
C       -2.4679269535    1.4357382824    0.5253899308
N       -1.3293892060    1.9458551080    0.3638035960
C        0.5904854638    0.5177278751   -0.3552028698
C       -0.4134529772    0.8324903410    0.7570318778
C       -1.3860021223   -0.2678184579    1.1221084187
N       -2.6187559444    0.0931554535    0.9845232053
C        1.1267843657   -0.8697714552   -0.5995120786
C        0.2736189237   -0.4368756779   -1.4746350214
H        1.2252133791    1.3848381417   -0.5603460756
H        0.1311990468    1.1608789379    1.6560107347
H       -1.1169900927   -1.2642150245    1.4684658329
H        1.7994548791   -1.6394104266   -0.2499338382
H       -0.2876111908   -0.5788357872   -2.3859677617
13   
Iteration 25 Energy -340.92496430
C       -2.4678353223    1.4332731721    0.5197809182
N       -1.3298399323    1.9452089303    0.3677272868
C        0.5907544728    0.5198883125   -0.3539788041
C       -0.4104115921    0.8342681624    0.7605826517
C       -1.3812100679   -0.2684469352    1.1192497662
N       -2.6142369189    0.0895231005    0.9738231130
C        1.1231924518   -0.8693709352   -0.5970320890
C        0.2688447892   -0.4363182918   -1.4708913740
H        1.2265187144    1.3852303248   -0.5624067201
H        0.1342396937    1.1639749564    1.6588065217
H       -1.1128487932   -1.2647377579    1.4637287903
H        1.7944701859   -1.6400104263   -0.2470824530
H       -0.2950101100   -0.5787253023   -2.3805716566
13   
Iteration 24 Energy -340.92493648
C       -2.4649537208    1.4301047358    0.5167861422
N       -1.3284788067    1.9472685077    0.3698463243
C        0.5895763908    0.5217668408   -0.3534371741
C       -0.4090234137    0.8369177532    0.7622444089
C       -1.3779526485   -0.2689471045    1.1163896720
N       -2.6109778391    0.0858839992    0.9662993503
C        1.1188688906   -0.8687787038   -0.5939626169
C        0.2647337694   -0.4361171209   -1.4682222989
H        1.2263840199    1.3859276228   -0.5636825939
H        0.1363975832    1.1641814697    1.6608153134
H       -1.1077539778   -1.2656251054    1.4589996263
H        1.7895144594   -1.6394852957   -0.2429509449
H       -0.2997071356   -0.5793402885   -2.3773892576
13   
Iteration 23 Energy -340.92486890
C       -2.4627341075    1.4246676454    0.5174922650
N       -1.3281142420    1.9482835217    0.3704905309
C        0.5877214910    0.5224594554   -0.3529833509
C       -0.4080824044    0.8372361405    0.7633183987
C       -1.3756144359   -0.2689959546    1.1146420237
N       -2.6083448878    0.0885382324    0.9624382321
C        1.1160031388   -0.8684504548   -0.5919953016
C        0.2624543396   -0.4363408129   -1.4671093640
H        1.2250524413    1.3859104651   -0.5643451950
H        0.1373097347    1.1650033680    1.6617657858
H       -1.1057470093   -1.2661968165    1.4557827723
H        1.7868747972   -1.6386787142   -0.2403545343
H       -0.3001512846   -0.5796787651   -2.3774063117
13   
Iteration 22 Energy -340.92469079
C       -2.4616349165    1.4183130206    0.5196384765
N       -1.3277078528    1.9494546410    0.3703368050
C        0.5868971356    0.5225056245   -0.3525079865
C       -0.4082551569    0.8366868879    0.7637277385
C       -1.3758108937   -0.2688400507    1.1140087161
N       -2.6085662153    0.0926721464    0.9606312238
C        1.1152302419   -0.8685650377   -0.5916056452
C        0.2620050156   -0.4363920731   -1.4669682479
H        1.2248057307    1.3852571997   -0.5642227325
H        0.1371039436    1.1655528108    1.6617108022
H       -1.1037019598   -1.2647248101    1.4546541070
H        1.7860275571   -1.6387362324   -0.2397923217
H       -0.2997650584   -0.5794268164   -2.3778749842
13   
Iteration 21 Energy -340.92116429
C       -2.4639996047    1.4847327215    0.4963796764
N       -1.3143216325    1.9608608893    0.3665788504
C        0.5813174536    0.5203136905   -0.3502280633
C       -0.4137280348    0.8358914195    0.7643865707
C       -1.3770562765   -0.2762361690    1.1133905041
N       -2.6177755082    0.0350260789    0.9771001651
C        1.1105662571   -0.8700561815   -0.5894893832
C        0.2593937476   -0.4372425961   -1.4664925901
H        1.2199506691    1.3834177974   -0.5597637043
H        0.1307765712    1.1604654943    1.6637992637
H       -1.0699251917   -1.2644229160    1.4523713741
H        1.7802599833   -1.6406509092   -0.2365157723
H       -0.2988308623   -0.5783420094   -2.3797809402
13   
Iteration 20 Energy -340.91490791
C       -2.4680182715    1.5351210552    0.4790531919
N       -1.3072076816    1.9650225266    0.3647598662
C        0.5783361802    0.5188174291   -0.3491168292
C       -0.4171372561    0.8350814547    0.7647769773
C       -1.3769348845   -0.2824084013    1.1141439171
N       -2.6208562977   -0.0035052370    0.9889131669
C        1.1086627447   -0.8708549510   -0.5886787655
C        0.2581833036   -0.4377810503   -1.4662792544
H        1.2164002367    1.3828586561   -0.5575284664
H        0.1263324415    1.1571223065    1.6652913668
H       -1.0498453526   -1.2659735050    1.4519152804
H        1.7767615354   -1.6423142749   -0.2345685411
H       -0.2980491269   -0.5774286984   -2.3809459592
13   
Iteration 19 Energy -340.91016652
C       -2.4707677400    1.5714291538    0.4667194524
N       -1.3029295758    1.9674364513    0.3633876262
C        0.5762601357    0.5177752654   -0.3484897038
C       -0.4194599667    0.8343005017    0.7651587525
C       -1.3765242173   -0.2874336924    1.1151294493
N       -2.6217482003   -0.0300364370    0.9973510660
C        1.1077440788   -0.8713203185   -0.5883300386
C        0.2573777773   -0.4382357791   -1.4661017432
H        1.2132188023    1.3828528940   -0.5564029658
H        0.1228689080    1.1548213024    1.6665769329
H       -1.0361075404   -1.2673756809    1.4515962647
H        1.7737343603   -1.6439314681   -0.2327979740
H       -0.2970392508   -0.5765248822   -2.3820611676
13   
Iteration 18 Energy -340.90701812
C       -2.4723657243    1.5971708693    0.4581141173
N       -1.3000428110    1.9694944563    0.3620963789
C        0.5747374576    0.5170932511   -0.3481871928
C       -0.4210321093    0.8333775956    0.7656168238
C       -1.3760101497   -0.2912236186    1.1160541354
N       -2.6217893176   -0.0485929073    1.0034952996
C        1.1073616246   -0.8716152304   -0.5882850625
C        0.2567621636   -0.4386702713   -1.4659282728
H        1.2102651759    1.3833432560   -0.5560896546
H        0.1200737710    1.1535341279    1.6676727968
H       -1.0263999792   -1.2690207541    1.4514015527
H        1.7707950412   -1.6456179950   -0.2309831325
H       -0.2957275719   -0.5755154693   -2.3832418382
13   
Iteration 17 Energy -340.90497992
C       -2.4730074954    1.6151251800    0.4523469245
N       -1.2980836777    1.9713804753    0.3610325329
C        0.5736762964    0.5166774137   -0.3480800305
C       -0.4219492021    0.8319994058    0.7662931301
C       -1.3753103147   -0.2941043110    1.1168916634
N       -2.6213539426   -0.0618472268    1.0081228104
C        1.1073765151   -0.8718541433   -0.5884796437
C        0.2563039946   -0.4390980159   -1.4657416656
H        1.2075645463    1.3839974435   -0.5565075561
H        0.1175846876    1.1535626295    1.6685788806
H       -1.0199974034   -1.2703280175    1.4510277281
H        1.7679513771   -1.6473831922   -0.2292222821
H       -0.2941278101   -0.5743703308   -2.3845265409
13   
Iteration 16 Energy -340.90364682
C       -2.4730645512    1.6275222782    0.4485858793
N       -1.2966231844    1.9731477198    0.3601796094
C        0.5729715896    0.5164670654   -0.3481026168
C       -0.4224576155    0.8303337249    0.7670975517
C       -1.3745347628   -0.2960885143    1.1175484078
N       -2.6207400702   -0.0713479476    1.0116336758
C        1.1075932098   -0.8720682734   -0.5888205571
C        0.2559540066   -0.4394904524   -1.4655594047
H        1.2052569278    1.3847788618   -0.5574438814
H        0.1153459486    1.1547157239    1.6692378851
H       -1.0159643001   -1.2719459854    1.4507619728
H        1.7652892859   -1.6491360655   -0.2275796380
H       -0.2923989131   -0.5731308252   -2.3858029327
13   
Iteration 15 Energy -340.90275215
C       -2.4725555958    1.6358928895    0.4463331416
N       -1.2957674036    1.9745660684    0.3597238199
C        0.5725717260    0.5163929296   -0.3481465623
C       -0.4226281935    0.8283338274    0.7680642444
C       -1.3736503781   -0.2975470187    1.1180800013
N       -2.6199763361   -0.0782843205    1.0143527332
C        1.1079681166   -0.8722781818   -0.5892384724
C        0.2557309634   -0.4398166787   -1.4653801068
H        1.2034334286    1.3853336639   -0.5587683218
H        0.1132244127    1.1569377539    1.6696367029
H       -1.0140297063   -1.2731245223    1.4503227889
H        1.7629811986   -1.6507677111   -0.2262213528
H       -0.2906746616   -0.5718813893   -2.3870226650
13   
Iteration 14 Energy -340.90213992
C       -2.4721232564    1.6416566676    0.4448519232
N       -1.2950237665    1.9757132210    0.3593619351
C        0.5723126245    0.5163719381   -0.3482101755
C       -0.4227709707    0.8267646601    0.7688222300
C       -1.3729487972   -0.2984739051    1.1184361332
N       -2.6194003409   -0.0831898796    1.0163276422
C        1.1082745220   -0.8724418594   -0.5895896281
C        0.2555637930   -0.4400671587   -1.4652412184
H        1.2020686656    1.3858619606   -0.5598936642
H        0.1116025226    1.1588496102    1.6698675647
H       -1.0128081934   -1.2743738507    1.4501174805
H        1.7611718868   -1.6520534747   -0.2251466067
H       -0.2892911183   -0.5708606190   -2.3879676650
13   
Iteration 13 Energy -340.90170693
C       -2.4713907615    1.6454394690    0.4440892315
N       -1.2947143061    1.9765431664    0.3592839316
C        0.5722080843    0.5164159921   -0.3482469387
C       -0.4227677191    0.8251105395    0.7696277482
C       -1.3722428277   -0.2991092881    1.1186966140
N       -2.6188006463   -0.0867496977    1.0178393348
C        1.1086163014   -0.8725896181   -0.5899353533
C        0.2554716879   -0.4402445508   -1.4651156785
H        1.2011234642    1.3861585257   -0.5611456181
H        0.1101090668    1.1612538097    1.6699105083
H       -1.0126560329   -1.2753970261    1.4498568811
H        1.7597089705   -1.6531665074   -0.2243285202
H       -0.2880377104   -0.5699075038   -2.3887961896
13   
Iteration 12 Energy -340.90139725
C       -2.4706733224    1.6479592300    0.4436784114
N       -1.2946005722    1.9771146989    0.3593126586
C        0.5721700262    0.5164727453   -0.3482640232
C       -0.4227415578    0.8237375946    0.7703015322
C       -1.3716567118   -0.2995431814    1.1188785232
N       -2.6183102086   -0.0892854344    1.0189447965
C        1.1089077119   -0.8727039206   -0.5902130555
C        0.2554209860   -0.4403638025   -1.4650165490
H        1.2004815259    1.3863184622   -0.5622091517
H        0.1089261637    1.1633635179    1.6698717756
H       -1.0128673043   -1.2761480053    1.4496268497
H        1.7586261080   -1.6540170888   -0.2237413132
H       -0.2870552735   -0.5691475057   -2.3894345036
13   
Iteration 11 Energy -340.90117426
C       -2.4700458169    1.6496427366    0.4434628073
N       -1.2945926005    1.9774957676    0.3593860768
C        0.5721645974    0.5165264410   -0.3482682468
C       -0.4227130783    0.8226608980    0.7708335796
C       -1.3711917389   -0.2998490981    1.1190072430
N       -2.6179289539   -0.0910860724    1.0197434781
C        1.1091424403   -0.8727889520   -0.5904246682
C        0.2553957140   -0.4404429925   -1.4649408713
H        1.2000447118    1.3863888379   -0.5630507770
H        0.1080290981    1.1650644555    1.6698032803
H       -1.0132085844   -1.2766417360    1.4494246964
H        1.7578483495   -1.6546431882   -0.2233300381
H       -0.2863165670   -0.5685697871   -2.3899106090
13   
Iteration 10 Energy -340.90101351
C       -2.4695343699    1.6507734031    0.4433526884
N       -1.2946319673    1.9777453520    0.3594695946
C        0.5721732695    0.5165709774   -0.3482657326
C       -0.4226882942    0.8218456535    0.7712386575
C       -1.3708337055   -0.3000715870    1.1191000821
N       -2.6176411754   -0.0923639417    1.0203165022
C        1.1093250888   -0.8728509740   -0.5905810985
C        0.2553851148   -0.4404960450   -1.4648842521
H        1.1997433423    1.3864070371   -0.5636878077
H        0.1073679074    1.1663676084    1.6697329996
H       -1.0135616728   -1.2769326431    1.4492491631
H        1.7572991252   -1.6550936197   -0.2230457226
H       -0.2857750918   -0.5681439108   -2.3902591230
13   
Iteration 9 Energy -340.90089782
C       -2.4691363335    1.6515379854    0.4432981423
N       -1.2946855929    1.9779079001    0.3595466370
C        0.5721864729    0.5166054432   -0.3482605423
C       -0.4226683131    0.8212421579    0.7715397727
C       -1.3705637663   -0.3002362459    1.1191678705
N       -2.6174278679   -0.0932709841    1.0207258931
C        1.1094637937   -0.8728957517   -0.5906946663
C        0.2553822280   -0.4405321692   -1.4648424250
H        1.1995323287    1.3863989901   -0.5641568340
H        0.1068889446    1.1673350589    1.6696723263
H       -1.0138744827   -1.2770858009    1.4491011451
H        1.7569143821   -1.6554134538   -0.2228500808
H       -0.2853842225   -0.5678358196   -2.3905112875
13   
Iteration 8 Energy -340.90081481
C       -2.4688360897    1.6520588418    0.4432721935
N       -1.2947376672    1.9780140274    0.3596109833
C        0.5721997552    0.5166310784   -0.3482548995
C       -0.4226528404    0.8208018907    0.7717601025
C       -1.3703635764   -0.3003585024    1.1192175627
N       -2.6172719004   -0.0939146971    1.0210176534
C        1.1095673201   -0.8729279075   -0.5907763192
C        0.2553830293   -0.4405571371   -1.4648118942
H        1.1993831991    1.3863805081   -0.5644964578
H        0.1065457656    1.1680399682    1.6696243562
H       -1.0141305578   -1.2771561612    1.4489807748
H        1.7566457246   -1.6556391867   -0.2227154740
H       -0.2851045909   -0.5676154123   -2.3906926306
13   
Iteration 7 Energy -340.90075541
C       -2.4686141015    1.6524162991    0.4432605241
N       -1.2947818909    1.9780839844    0.3596618058
C        0.5722112451    0.5166497555   -0.3482497923
C       -0.4226411311    0.8204838494    0.7719196325
C       -1.3702168809   -0.3004488899    1.1192538580
N       -2.6171587675   -0.0943714691    1.0212250787
C        1.1096434400   -0.8729509063   -0.5908345882
C        0.2553851600   -0.4405745709   -1.4647897121
H        1.1992772267    1.3863600430   -0.5647399450
H        0.1063011800    1.1685475294    1.6695877914
H       -1.0143302572   -1.2771816614    1.4488860565
H        1.7564579363   -1.6557980031   -0.2226224982
H       -0.2849055880   -0.5674586496   -2.3908222601
13   
Iteration 6 Energy -340.90071303
C       -2.4684523426    1.6526632158    0.4432557824
N       -1.2948170631    1.9781305619    0.3597005162
C        0.5722205083    0.5166631690   -0.3482456023
C       -0.4226324411    0.8202555905    0.7720342925
C       -1.3701104625   -0.3005151614    1.1192802532
N       -2.6170773767   -0.0946953241    1.0213724007
C        1.1096988824   -0.8729673184   -0.5908760844
C        0.2553875838   -0.4405868301   -1.4647737585
H        1.1992018584    1.3863414813   -0.5649135264
H        0.1061275928    1.1689106486    1.6695608697
H       -1.0144814056   -1.2771854387    1.4488136111
H        1.7563265705   -1.6559097455   -0.2225580930
H       -0.2847643335   -0.5673475386   -2.3909147101
13   
Iteration 5 Energy -340.90068286
C       -2.4683355668    1.6528347346    0.4432542426
N       -1.2948439316    1.9781619387    0.3597293248
C        0.5722276509    0.5166727394   -0.3482423357
C       -0.4226260790    0.8200925097    0.7721162948
C       -1.3700338055   -0.3005633632    1.1192993336
N       -2.6170191056   -0.0949248133    1.0214769099
C        1.1097389372   -0.8729790019   -0.5909055631
C        0.2553897887   -0.4405954783   -1.4647623363
H        1.1991482627    1.3863261637   -0.5650368633
H        0.1060046201    1.1691693366    1.6695413416
H       -1.0145934549   -1.2771801389    1.4487593765
H        1.7562344939   -1.6559884098   -0.2225132810
H       -0.2846642389   -0.5672689071   -2.3909804932
13   
Iteration 4 Energy -340.90066142
C       -2.4682517967    1.6529544199    0.4432540815
N       -1.2948639441    1.9781833039    0.3597504315
C        0.5722330075    0.5166795400   -0.3482398694
C       -0.4226214640    0.8199763584    0.7721747399
C       -1.3699788730   -0.3005981789    1.1193130532
N       -2.6169775339   -0.0950873510    1.0215509816
C        1.1097677009   -0.8729873055   -0.5909264726
C        0.2553916066   -0.4406015902   -1.4647541858
H        1.1991101799    1.3863141804   -0.5651243318
H        0.1059175815    1.1693531452    1.6695273015
H       -1.0146753434   -1.2771720884    1.4487194187
H        1.7561698217   -1.6560438228   -0.2224819865
H       -0.2845933718   -0.5672133007   -2.3910272105
13   
Iteration 3 Energy -340.90064621
C       -2.4681919650    1.6530382290    0.4432544400
N       -1.2948786074    1.9781979844    0.3597657314
C        0.5722369519    0.5166843633   -0.3482380439
C       -0.4226181405    0.8198938105    0.7722162977
C       -1.3699396576   -0.3006231868    1.1193228756
N       -2.6169479501   -0.0952024227    1.0216034462
C        1.1097882672   -0.8729931988   -0.5909412880
C        0.2553930266   -0.4406059124   -1.4647483842
H        1.1990831458    1.3863051082   -0.5651862946
H        0.1058560070    1.1694835327    1.6695172639
H       -1.0147346051   -1.2771641203    1.4486903209
H        1.7561243246   -1.6560828886   -0.2224600613
H       -0.2845432264   -0.5671739883   -2.3910603528
13   
Iteration 2 Energy -340.90063542
C       -2.4681493600    1.6530970726    0.4432549324
N       -1.2948892343    1.9782081462    0.3597767396
C        0.5722398197    0.5166877805   -0.3482367125
C       -0.4226157609    0.8198352331    0.7722457983
C       -1.3699117389   -0.3006410730    1.1193298842
N       -2.6169269365   -0.0952838634    1.0216405888
C        1.1098029248   -0.8729973766   -0.5909517792
C        0.2553940989   -0.4406089693   -1.4647442628
H        1.1990639735    1.3862983883   -0.5652301593
H        0.1058124590    1.1695759286    1.6695101128
H       -1.0147771983   -1.2771573066    1.4486693106
H        1.7560922770   -1.6561104534   -0.2224446627
H       -0.2845077528   -0.5671461966   -2.3910838393
13   
Iteration 1 Energy -340.90062778
C       -2.4681190242    1.6531383797    0.4432554518
N       -1.2948969327    1.9782151723    0.3597846591
C        0.5722419051    0.5166901994   -0.3482357421
C       -0.4226140549    0.8197936652    0.7722667391
C       -1.3698918617   -0.3006538696    1.1193348870
N       -2.6169120106   -0.0953415033    1.0216668855
C        1.1098133729   -0.8730003394   -0.5909592087
C        0.2553949078   -0.4406111328   -1.4647413350
H        1.1990503729    1.3862934145   -0.5652612079
H        0.1057816622    1.1696413976    1.6695050227
H       -1.0148078108   -1.2771516243    1.4486541360
H        1.7560697034   -1.6561298964   -0.2224338532
H       -0.2844826584   -0.5671265528   -2.3911004832
13   
Iteration 0 Energy -340.89788138
C       -2.5075183449    1.7638244049    0.3903910559
N       -1.3093455882    1.9436334293    0.3693661914
C        0.5750810961    0.5111440577   -0.3447456364
C       -0.4310699543    0.8333753868    0.7643685979
C       -1.3700970952   -0.3118089003    1.1261679399
N       -2.6165024778   -0.1447826595    1.0343042888
C        1.0991517264   -0.8788493746   -0.5881553399
C        0.2571710721   -0.4349243974   -1.4690430774
H        1.2186140108    1.3751037017   -0.5408299090
H        0.1120024857    1.1465341314    1.6669692781
H       -0.9686772749   -1.2698860861    1.4678029010
H        1.7635237367   -1.6551752450   -0.2377681674
H       -0.2957058214   -0.5644311386   -2.3870921718
13   
Iteration 1 Energy -340.89935747
C       -2.5185163558    1.8701303191    0.3444497737
N       -1.3280631865    1.9089877923    0.3769378143
C        0.5746948439    0.5077073579   -0.3415175912
C       -0.4427151667    0.8425579771    0.7559373402
C       -1.3708241537   -0.3259341168    1.1281259657
N       -2.6140479817   -0.1966182014    1.0441775571
C        1.0870522251   -0.8828917115   -0.5837688472
C        0.2566503991   -0.4296793830   -1.4717863247
H        1.2321846022    1.3666295837   -0.5182023886
H        0.1131379816    1.1239452687    1.6614584060
H       -0.9234206212   -1.2582537429    1.4855604521
H        1.7681993080   -1.6508674747   -0.2474025973
H       -0.3077043233   -0.5619563583   -2.3822336090
13   
Iteration 2 Energy -340.89936452
C       -2.5185611685    1.8701602892    0.3444487272
N       -1.3280224038    1.9090007883    0.3769445314
C        0.5746962212    0.5077117173   -0.3415174359
C       -0.4427007303    0.8425170794    0.7559558945
C       -1.3707972569   -0.3259399445    1.1281314928
N       -2.6140463189   -0.1966428596    1.0441909909
C        1.0870593843   -0.8828937469   -0.5837761585
C        0.2566503003   -0.4296803131   -1.4717841617
H        1.2321796763    1.3666223723   -0.5182354803
H        0.1131077341    1.1240254076    1.6614660636
H       -0.9234294212   -1.2582959449    1.4855539179
H        1.7681723871   -1.6508891673   -0.2473906485
H       -0.3076808325   -0.5619383675   -2.3822517822
13   
Iteration 3 Energy -340.89937441
C       -2.5186241775    1.8702029887    0.3444471838
N       -1.3279651971    1.9090192630    0.3769539666
C        0.5746981483    0.5077178584   -0.3415172547
C       -0.4426802466    0.8424590025    0.7559822617
C       -1.3707591128   -0.3259483244    1.1281394171
N       -2.6140438236   -0.1966780242    1.0442101619
C        1.0870695622   -0.8828966272   -0.5837865604
C        0.2566501204   -0.4296816885   -1.4717810912
H        1.2321726069    1.3666124327   -0.5182824861
H        0.1130649601    1.1241388261    1.6614769951
H       -0.9234420145   -1.2583554966    1.4855444834
H        1.7681341512   -1.6509200425   -0.2473736110
H       -0.3076474059   -0.5619128578   -2.3822775150
13   
Iteration 4 Energy -340.89938829
C       -2.5187127607    1.8702638293    0.3444449065
N       -1.3278849605    1.9090455273    0.3769672177
C        0.5747008437    0.5077265101   -0.3415170523
C       -0.4426511850    0.8423765392    0.7560197292
C       -1.3707050213   -0.3259603690    1.1281507749
N       -2.6140400888   -0.1967281687    1.0442375167
C        1.0870840307   -0.8829007020   -0.5838013554
C        0.2566498086   -0.4296837182   -1.4717767307
H        1.2321624567    1.3665987443   -0.5183492486
H        0.1130044736    1.1242993278    1.6614925921
H       -0.9234600236   -1.2584395382    1.4855308703
H        1.7680798469   -1.6509639815   -0.2473493156
H       -0.3075998492   -0.5618766899   -2.3823139536
13   
Iteration 5 Energy -340.89940767
C       -2.5188369659    1.8703507937    0.3444414888
N       -1.3277728403    1.9090829462    0.3769857670
C        0.5747045970    0.5077386793   -0.3415168747
C       -0.4426099008    0.8422592693    0.7560730723
C       -1.3706282372   -0.3259777896    1.1281671417
N       -2.6140343874   -0.1967999138    1.0442766898
C        1.0871046419   -0.8829064652   -0.5838224462
C        0.2566492543   -0.4296867597   -1.4717705251
H        1.2321477809    1.3665801166   -0.5184442287
H        0.1129189471    1.1245264890    1.6615149147
H       -0.9234858754   -1.2585580390    1.4855110812
H        1.7680025776   -1.6510266580   -0.2473145557
H       -0.3075320208   -0.5618253585   -2.3823655741
13   
Iteration 6 Energy -340.89943460
C       -2.5190104293    1.8704756622    0.3444362362
N       -1.3276170339    1.9091364210    0.3770115992
C        0.5747097877    0.5077557589   -0.3415168440
C       -0.4425511578    0.8420921642    0.7561492143
C       -1.3705190999   -0.3260031914    1.1281908984
N       -2.6140254725   -0.1969030340    1.0443330644
C        1.0871340898   -0.8829146114   -0.5838526007
C        0.2566482441   -0.4296914028   -1.4717616682
H        1.2321263508    1.3665552390   -0.5185796447
H        0.1127980496    1.1248480116    1.6615470018
H       -0.9235231530   -1.2587249412    1.4854820412
H        1.7678923575   -1.6511163542   -0.2472645890
H       -0.3074349618   -0.5617524114   -2.3824387578
13   
Iteration 7 Energy -340.89947179
C       -2.5192512259    1.8706561248    0.3444278921
N       -1.3274023464    1.9092131707    0.3770472738
C        0.5747168969    0.5077796594   -0.3415172467
C       -0.4424674035    0.8418534441    0.7562582739
C       -1.3703637360   -0.3260406188    1.1282257215
N       -2.6140111277   -0.1970521694    1.0444147379
C        1.0871763357   -0.8829261053   -0.5838958732
C        0.2566463683   -0.4296986525   -1.4717489703
H        1.2320945950    1.3665230036   -0.5187732413
H        0.1126272643    1.1253029917    1.6615933845
H       -0.9235771590   -1.2589596916    1.4854389352
H        1.7677345933   -1.6512452730   -0.2471922753
H       -0.3072954838   -0.5616485736   -2.3825426612
13   
Iteration 8 Energy -340.89952261
C       -2.5195821896    1.8709195594    0.3444140248
N       -1.3271102945    1.9093240636    0.3770959363
C        0.5747264370    0.5078129831   -0.3415186761
C       -0.4423476993    0.8415114456    0.7564151948
C       -1.3701421148   -0.3260965499    1.1282773792