13   
Iteration 0 Energy -340.89664647
C       -2.5040688303    0.6139211433   -0.2028366554
N       -1.4730964475    1.2401997237   -0.0978310176
C        0.9207986141    0.5549774031   -0.2363656985
C       -0.3496505966    0.6291466020    0.6299147575
C       -0.8770214067   -0.7236331356    1.1017888485
N       -2.0545653630   -1.0713981631    0.8147625226
C        1.5505345539   -0.7564453116   -0.6351691077
C        0.9043570273   -0.1358742703   -1.5696832110
H        1.5531172972    1.4397673556   -0.1078929100
H       -0.1449723931    1.2555789761    1.5086843669
H       -0.2411462930   -1.3867724458    1.6956553849
H        2.1490580617   -1.5945131593   -0.3099414312
H        0.5646123433   -0.0666017915   -2.5919537753
13   
Iteration 1 Energy -340.89670118
C       -2.4995182644    0.6203515194   -0.2018889840
N       -1.4688623591    1.2482532958   -0.0937247667
C        0.9187101820    0.5552433455   -0.2357255485
C       -0.3488740469    0.6303825763    0.6314898321
C       -0.8765252798   -0.7234107087    1.0945738260
N       -2.0536134711   -1.0689949836    0.8031838891
C        1.5517242042   -0.7554999194   -0.6303647388
C        0.8980569672   -0.1428925711   -1.5654572520
H        1.5474625304    1.4426138240   -0.1126868484
H       -0.1442194274    1.2503006032    1.5139573971
H       -0.2387077057   -1.3889797312    1.6836021569
H        2.1548850021   -1.5879182469   -0.2994936411
H        0.5507942316   -0.0790042341   -2.5851171839
13   
Iteration 2 Energy -340.89676569
C       -2.5001242131    0.6357650951   -0.1957925386
N       -1.4670408259    1.2590892386   -0.0837916340
C        0.9156096187    0.5566103161   -0.2375864632
C       -0.3484263864    0.6303153233    0.6341846134
C       -0.8804652480   -0.7250122448    1.0872071412
N       -2.0591100504   -1.0639451707    0.7944784963
C        1.5579300260   -0.7518315565   -0.6244103127
C        0.8939090441   -0.1531074848   -1.5612657862
H        1.5373251282    1.4502627612   -0.1247880190
H       -0.1390951982    1.2419790412    1.5212831954
H       -0.2434349766   -1.3977177041    1.6689380467
H        2.1699249947   -1.5757384361   -0.2884740602
H        0.5392030074   -0.1013743992   -2.5790346060
13   
Iteration 3 Energy -340.89685753
C       -2.5028461527    0.6576732088   -0.1825685072
N       -1.4655734033    1.2734867676   -0.0678875073
C        0.9106744699    0.5589535060   -0.2410100326
C       -0.3478266361    0.6295066609    0.6380036874
C       -0.8861166171   -0.7276035841    1.0779154192
N       -2.0680553463   -1.0558762795    0.7863837657
C        1.5669066341   -0.7458727379   -0.6161913576
C        0.8896795674   -0.1668175950   -1.5560678075
H        1.5218958637    1.4615870530   -0.1428920057
H       -0.1306653694    1.2299292387    1.5309654819
H       -0.2507776808   -1.4109720585    1.6489492683
H        2.1914229797   -1.5578529709   -0.2742488503
H        0.5272869913   -0.1328558976   -2.5718993408
13   
Iteration 4 Energy -340.89699009
C       -2.5079956822    0.6888405840   -0.1592372289
N       -1.4643238690    1.2934471203   -0.0431650302
C        0.9028166629    0.5629970389   -0.2463076011
C       -0.3471149520    0.6282584265    0.6438378693
C       -0.8936651437   -0.7311662459    1.0657672664
N       -2.0808505333   -1.0439589976    0.7786252284
C        1.5791912843   -0.7358990860   -0.6054489786
C        0.8836604197   -0.1849295961   -1.5490391072
H        1.4985003419    1.4780314125   -0.1688662368
H       -0.1181869576    1.2125475720    1.5446736275
H       -0.2601831091   -1.4295546997    1.6204242838
H        2.2218447972   -1.5303797048   -0.2559931771
H        0.5120742234   -0.1757407364   -2.5621096547
13   
Iteration 5 Energy -340.89713140
C       -2.5143080794    0.7217205410   -0.1317705290
N       -1.4637721086    1.3142473190   -0.0154846909
C        0.8933028790    0.5679570395   -0.2524881964
C       -0.3469394917    0.6269232519    0.6500997845
C       -0.9018766792   -0.7347774019    1.0530019561
N       -2.0946930318   -1.0311186199    0.7718492549
C        1.5915385287   -0.7235237043   -0.5954253317
C        0.8767902079   -0.2027321338   -1.5420507385
H        1.4716748774    1.4956780757   -0.1966558869
H       -0.1051088203    1.1936377836    1.5589194679
H       -0.2700899112   -1.4489562819    1.5891272097
H        2.2537099376   -1.4986964342   -0.2390140609
H        0.4965946112   -0.2193326405   -2.5518665207
13   
Iteration 6 Energy -340.89726890
C       -2.5206215743    0.7534548752   -0.1030743314
N       -1.4632728093    1.3337953617    0.0128028611
C        0.8832122311    0.5722491126   -0.2588222708
C       -0.3470669526    0.6248391542    0.6563817984
C       -0.9104260018   -0.7387373949    1.0405013048
N       -2.1086921734   -1.0187399400    0.7658542925
C        1.6034630086   -0.7108989783   -0.5860886370
C        0.8700160997   -0.2206994623   -1.5350071348
H        1.4437123348    1.5119876741   -0.2242593488
H       -0.0921598055    1.1738276889    1.5726386586
H       -0.2804839626   -1.4683668668    1.5575883501
H        2.2849608421   -1.4662155725   -0.2234311157
H        0.4822239495   -0.2627277951   -2.5412299823
13   
Iteration 7 Energy -340.89739978
C       -2.5251043527    0.7852411309   -0.0733599529
N       -1.4607694629    1.3527222739    0.0422012781
C        0.8742656478    0.5751673794   -0.2642124881
C       -0.3460951496    0.6217575610    0.6633528170
C       -0.9188855531   -0.7430775536    1.0282970992
N       -2.1224487306   -1.0061272075    0.7601058545
C        1.6158719814   -0.6992256549   -0.5764533945
C        0.8649967700   -0.2391466533   -1.5270541593
H        1.4169385358    1.5259166576   -0.2501774740
H       -0.0779270613    1.1523409296    1.5867919994
H       -0.2915823639   -1.4882656339    1.5259619509
H        2.3157659153   -1.4347567960   -0.2081208415
H        0.4707918996   -0.3057664508   -2.5294948665
13   
Iteration 8 Energy -340.89752269
C       -2.5267676978    0.8196733757   -0.0427307338
N       -1.4549459682    1.3728426760    0.0730453973
C        0.8673309004    0.5772317174   -0.2684906614
C       -0.3433066953    0.6184118280    0.6709939058
C       -0.9274808842   -0.7468537059    1.0155106523
N       -2.1363083493   -0.9913718628    0.7535023548
C        1.6292486311   -0.6883391954   -0.5661216936
C        0.8627258674   -0.2574347489   -1.5181535801
H        1.3925846898    1.5378716729   -0.2740265643
H       -0.0614898571    1.1290894786    1.6017102900
H       -0.3041970992   -1.5083563426    1.4930347454
H        2.3461950293   -1.4045259065   -0.1924331999
H        0.4634929197   -0.3476126023   -2.5168007829
13   
Iteration 9 Energy -340.89763177
C       -2.5264106930    0.8563971531   -0.0134727550
N       -1.4468843691    1.3942816252    0.1028002035
C        0.8618123000    0.5793097553   -0.2726434357
C       -0.3397278496    0.6160046479    0.6778196557
C       -0.9368026824   -0.7486912437    1.0017745069
N       -2.1506492394   -0.9737849179    0.7455766861
C        1.6431932757   -0.6774858936   -0.5551520467
C        0.8630768678   -0.2752768039   -1.5089638166
H        1.3701833025    1.5487589258   -0.2969186466
H       -0.0444772142    1.1062531341    1.6154733587
H       -0.3188262701   -1.5265541035    1.4593114931
H        2.3756900906   -1.3747367623   -0.1757875264
H        0.4604158676   -0.3884063770   -2.5039334958
13   
Iteration 10 Energy -340.89772406
C       -2.5255684222    0.8941507017    0.0134710927
N       -1.4384760091    1.4165297755    0.1300372626
C        0.8563299173    0.5821553216   -0.2776743383
C       -0.3367103346    0.6151488470    0.6829351124
C       -0.9472863155   -0.7480928488    0.9872407619
N       -2.1657784685   -0.9537863304    0.7367748385
C        1.6573004271   -0.6654750545   -0.5438167138
C        0.8650042094   -0.2927724402   -1.4998219616
H        1.3477139555    1.5597252369   -0.3206481179
H       -0.0285597716    1.0853357963    1.6268274544
H       -0.3353745969   -1.5416492244    1.4254589738
H        2.4044726542   -1.3434148480   -0.1580543958
H        0.4602877614   -0.4292749019   -2.4910569047
13   
Iteration 11 Energy -340.89779994
C       -2.5251273478    0.9342702964    0.0410415662
N       -1.4302539963    1.4403326583    0.1568988511
C        0.8494200498    0.5856922587   -0.2845458348
C       -0.3345792690    0.6156692706    0.6868112020
C       -0.9595524301   -0.7451583329    0.9721312407
N       -2.1826730081   -0.9307131777    0.7285025701
C        1.6709278936   -0.6518151342   -0.5329615924
C        0.8663564731   -0.3109761906   -1.4908462619
H        1.3227247743    1.5710912797   -0.3477279873
H       -0.0128453780    1.0653740316    1.6362656663
H       -0.3543583802   -1.5543321271    1.3905373091
H        2.4330092939   -1.3089460692   -0.1403489789
H        0.4599893309   -0.4725017979   -2.4776725647
13   
Iteration 12 Energy -340.89784894
C       -2.5256028874    0.9723793238    0.0683570123
N       -1.4231434443    1.4623884579    0.1814214070
C        0.8407695943    0.5868661648   -0.2932784761
C       -0.3336924577    0.6162166263    0.6893969028
C       -0.9730839616   -0.7409992440    0.9596586231
N       -2.2006356246   -0.9071319651    0.7243654777
C        1.6798821088   -0.6416267277   -0.5252410696
C        0.8636679728   -0.3307681359   -1.4836871707
H        1.2978537678    1.5784216561   -0.3766669058
H        0.0020225481    1.0474405739    1.6426828146
H       -0.3747136378   -1.5642944133    1.3597930626
H        2.4551867026   -1.2795095334   -0.1267645370
H        0.4549803031   -0.5159037242   -2.4654316463
13   
Iteration 13 Energy -340.89787476
C       -2.5268389946    1.0131022238    0.0990822401
N       -1.4157761380    1.4848911617    0.2054141675
C        0.8290502887    0.5823277745   -0.3042589955
C       -0.3339612008    0.6167650936    0.6917621186
C       -0.9904432342   -0.7341176220    0.9527877580
N       -2.2228682643   -0.8788892152    0.7290942222
C        1.6801659183   -0.6403921794   -0.5207758113
C        0.8522464937   -0.3568925423   -1.4778287323
H        1.2736902370    1.5774655594   -0.4094216825
H        0.0183407258    1.0314442415    1.6464897223
H       -0.4003448278   -1.5712161841    1.3360745155
H        2.4663339708   -1.2619242656   -0.1177299916
H        0.4387906378   -0.5645215466   -2.4530911096
13   
Iteration 14 Energy -340.89788039
C       -2.4833068179    1.5701052101    0.4726767370
N       -1.2994192054    1.8272254652    0.4447997956
C        0.6639314317    0.5325110549   -0.3199515121
C       -0.3474823165    0.7677669659    0.8065493118
C       -1.2072038205   -0.4424734640    1.1537844788
N       -2.4627269862   -0.3542264696    1.0785714896
C        1.2813379796   -0.8140414720   -0.5876251917
C        0.4002071135   -0.4193498364   -1.4534946004
H        1.2428903247    1.4420712664   -0.5108142485
H        0.1853501930    1.0960112486    1.7098783893
H       -0.7415512638   -1.3795064134    1.4714082538
H        2.0023297676   -1.5463455821   -0.2548665442
H       -0.1534415168   -0.5756510941   -2.3668903016
13   
Iteration 15 Energy -340.89788026
C       -2.5035440939    1.7616992673    0.3820845306
N       -1.3056844644    1.9439201636    0.3650394165
C        0.5807261631    0.5157655450   -0.3515935117
C       -0.4263515650    0.8337342774    0.7581719582
C       -1.3642091159   -0.3134901026    1.1163504917
N       -2.6106334950   -0.1487626200    1.0208451421
C        1.0968214952   -0.8750491952   -0.6074840681
C        0.2587518370   -0.4177121190   -1.4851746121
H        1.2295678247    1.3776756453   -0.5389632976
H        0.1159003184    1.1452143383    1.6617836384
H       -0.9618632033   -1.2713370043    1.4575733109
H        1.7561529757   -1.6585484273   -0.2635951222
H       -0.2937848512   -0.5348641188   -2.4050932843
13   
Iteration 16 Energy -340.89788137
C       -2.5047709882    1.7636243489    0.4027948124
N       -1.3065851678    1.9427318034    0.3773261656
C        0.5741260251    0.5117606780   -0.3493371174
C       -0.4273357292    0.8306084558    0.7649056679
C       -1.3655549882   -0.3153116230    1.1265100290
N       -2.6122363574   -0.1472282176    1.0405044465
C        1.0962898335   -0.8776430742   -0.6001284177
C        0.2509897348   -0.4298713003   -1.4758738582
H        1.2174282425    1.3760283505   -0.5448238201
H        0.1195150297    1.1403507041    1.6664055312
H       -0.9633079270   -1.2748165702    1.4631374588
H        1.7616844003   -1.6556579502   -0.2554787003
H       -0.3056747289   -0.5555627820   -2.3921613872
13   
Iteration 17 Energy -340.89788138
C       -2.5074486977    1.7634853872    0.3918346401
N       -1.3093080515    1.9434502391    0.3702933308
C        0.5748480300    0.5112941098   -0.3451053886
C       -0.4307234784    0.8331995526    0.7646353298
C       -1.3694492971   -0.3121462586    1.1266898433
N       -2.6159158609   -0.1452457150    1.0354370514
C        1.0986851981   -0.8786418046   -0.5893297000
C        0.2562524329   -0.4343191996   -1.4695867034
H        1.2183263921    1.3752880477   -0.5412164122
H        0.1127939143    1.1462250336    1.6670146183
H       -0.9677571054   -1.2702360497    1.4679707849
H        1.7631946790   -1.6551486523   -0.2396050135
H       -0.2971216059   -0.5634354057   -2.3873918610
13   
Iteration 18 Energy -340.89788138
C       -2.5074817804    1.7635949259    0.3915427695
N       -1.3093314023    1.9435014163    0.3700908098
C        0.5748941718    0.5112618228   -0.3450289938
C       -0.4308169795    0.8332402525    0.7645570001
C       -1.3696178806   -0.3120691642    1.1265464912
N       -2.6160715485   -0.1451251849    1.0351886896
C        1.0988057699   -0.8786866898   -0.5890408169
C        0.2564865432   -0.4344785846   -1.4694616429
H        1.2183830627    1.3752487788   -0.5411372647
H        0.1126041999    1.1462880297    1.6669856809
H       -0.9679923147   -1.2701673192    1.4678818279
H        1.7632891997   -1.6551373141   -0.2391418773
H       -0.2967631686   -0.5636997117   -2.3873262989
13   
Iteration 19 Energy -340.89788138
C       -2.5075039341    1.7637363297    0.3908777758
N       -1.3093396421    1.9435824006    0.3696705993
C        0.5750043040    0.5111943674   -0.3448640304
C       -0.4309682876    0.8333192735    0.7644451071
C       -1.3699036848   -0.3119161618    1.1263198166
N       -2.6163290508   -0.1449186569    1.0346731754
C        1.0990175080   -0.8787795313   -0.5885047277
C        0.2569007372   -0.4347502145   -1.4692101664
H        1.2185163580    1.3751672550   -0.5409607072
H        0.1122489700    1.1464274084    1.6669762206
H       -0.9684006063   -1.2700057410    1.4678229637
H        1.7634358070   -1.6551513424   -0.2383066393
H       -0.2961248371   -0.5641525530   -2.3871846083
13   
Iteration 20 Energy -340.89788138
C       -2.5075183449    1.7638244049    0.3903910559
N       -1.3093455882    1.9436334293    0.3693661914
C        0.5750810961    0.5111440577   -0.3447456364
C       -0.4310699543    0.8333753868    0.7643685979
C       -1.3700970952   -0.3118089003    1.1261679399
N       -2.6165024778   -0.1447826595    1.0343042888
C        1.0991517264   -0.8788493746   -0.5881553399
C        0.2571710721   -0.4349243974   -1.4690430774
H        1.2186140108    1.3751037017   -0.5408299090
H        0.1120024857    1.1465341314    1.6669692781
H       -0.9686772749   -1.2698860861    1.4678029010
H        1.7635237367   -1.6551752450   -0.2377681674
H       -0.2957058214   -0.5644311386   -2.3870921718
