13   
IRC reactant Energy -340.96809906
C       -1.8267999719   -1.3048800922   -0.0900969344
N       -2.4421716725   -1.3901772733   -1.0916744965
C        0.5695383829    1.0269017448   -0.3410917892
C        0.3516744704    0.5614422822    1.0364459568
C       -0.3727888600   -0.4991426913    1.5933159779
N       -1.2744725008   -1.3433160472    1.0964993140
C        1.1951767178    0.0954526465   -1.3950129293
C       -0.0316276564    0.4245903559   -1.6008115243
H        0.8785307928    2.0760269350   -0.3680958444
H        0.9164682028    1.1254726642    1.7791300840
H       -0.1781874783   -0.6806427838    2.6504257055
H        2.1070866538   -0.4260141049   -1.6396060099
H       -0.9451808485    0.3641625207   -2.1703387010
13   
IRC product Energy -340.97237675
C       -1.6865563099   -1.3154169303   -0.0582322438
N       -2.3828535635   -1.2831573171   -0.9978370148
C        0.2751521896    1.2717125601   -0.1059102973
C        0.0430151027    0.7803887289    1.1319412338
C       -0.2090868815   -0.5944015405    1.5601911019
N       -0.9657424924   -1.5090987081    1.0470761910
C        1.1004316007   -0.6276551398   -1.4805438518
C        0.5114169765    0.5476534618   -1.3582696769
H        0.3475790117    2.3557776735   -0.1903484506
H        0.0691772013    1.4879602327    1.9609024685
H        0.2487870443   -0.8779053460    2.5112036058
H        1.3771591204   -1.2892630081   -2.2910691340
H        0.2187672324    1.0832814896   -2.2700151225
