13   
Iteration 1 Energy -340.96809897
C       -1.8262576440   -1.3043444108   -0.0905070069
N       -2.4412990300   -1.3894719244   -1.0923045690
C        0.5697477075    1.0269737003   -0.3408792715
C        0.3519194857    0.5615241427    1.0366400696
C       -0.3726470550   -0.4990031968    1.5934250635
N       -1.2743137186   -1.3429923736    1.0962596534
C        1.1949848529    0.0953482253   -1.3947646956
C       -0.0318208371    0.4246135169   -1.6003727918
H        0.8788204282    2.0760691322   -0.3680620740
H        0.9169456991    1.1253537764    1.7792950566
H       -0.1780779434   -0.6807352185    2.6505012883
H        2.1067859706   -0.4263106600   -1.6394384227
H       -0.9455247541    0.3642474186   -2.1696998486
13   
Iteration 0 Energy -340.96809906
C       -1.8267999719   -1.3048800922   -0.0900969344
N       -2.4421716725   -1.3901772733   -1.0916744965
C        0.5695383829    1.0269017448   -0.3410917892
C        0.3516744704    0.5614422822    1.0364459568
C       -0.3727888600   -0.4991426913    1.5933159779
N       -1.2744725008   -1.3433160472    1.0964993140
C        1.1951767178    0.0954526465   -1.3950129293
C       -0.0316276564    0.4245903559   -1.6008115243
H        0.8785307928    2.0760269350   -0.3680958444
H        0.9164682028    1.1254726642    1.7791300840
H       -0.1781874783   -0.6806427838    2.6504257055
H        2.1070866538   -0.4260141049   -1.6396060099
H       -0.9451808485    0.3641625207   -2.1703387010
13   
Iteration 21 Energy -340.96809882
C       -1.8297587784   -1.3020263131   -0.0889619980
N       -2.4467321968   -1.3851133747   -1.0897420854
C        0.5680456265    1.0267527375   -0.3416485705
C        0.3516351620    0.5605718893    1.0359379144
C       -0.3724873032   -0.4999516540    1.5930694188
N       -1.2757133090   -1.3428353650    1.0967563354
C        1.1978278705    0.0971321770   -1.3942492245
C       -0.0300597290    0.4216971995   -1.6013749314
H        0.8731369716    2.0770121059   -0.3689139281
H        0.9185926390    1.1232895138    1.7779891440
H       -0.1760845301   -0.6828529241    2.6495996393
H        2.1117182324   -0.4215368794   -1.6375953144
H       -0.9428744232    0.3577370441   -2.1717775902
13   
Iteration 20 Energy -340.96809573
C       -1.8396852730   -1.2927822586   -0.0851204099
N       -2.4612826934   -1.3691879214   -1.0835769373
C        0.5635748021    1.0254271017   -0.3431886395
C        0.3526304930    0.5572226228    1.0349261733
C       -0.3717334753   -0.5026501797    1.5927259806
N       -1.2802540670   -1.3407942331    1.0978158823
C        1.2069365691    0.1021080554   -1.3935792003
C       -0.0245852580    0.4117022594   -1.6028632568
H        0.8572614705    2.0789978659   -0.3708604510
H        0.9233997342    1.1179332355    1.7756260914
H       -0.1710299927   -0.6895258838    2.6477484434
H        2.1275107549   -0.4051637091   -1.6355807205
H       -0.9354968321    0.3365892016   -2.1749841463
13   
Iteration 19 Energy -340.96809127
C       -1.8461420868   -1.2865715865   -0.0827525935
N       -2.4722300889   -1.3574321736   -1.0788186668
C        0.5605199167    1.0250806179   -0.3443225577
C        0.3524362136    0.5558536194    1.0340768243
C       -0.3706997916   -0.5046385354    1.5918718474
N       -1.2816180753   -1.3406410264    1.0974983592
C        1.2127952302    0.1053049754   -1.3920747488
C       -0.0208368496    0.4051424084   -1.6037948909
H        0.8461552281    2.0808369461   -0.3728468216
H        0.9263134119    1.1147337322    1.7737929610
H       -0.1665732061   -0.6945973019    2.6456821934
H        2.1373207665   -0.3958693895   -1.6318221629
H       -0.9301944366    0.3226738706   -2.1774009340
13   
Iteration 18 Energy -340.96808379
C       -1.8522154720   -1.2792282043   -0.0808034519
N       -2.4851604297   -1.3411880659   -1.0731208622
C        0.5567983698    1.0252000518   -0.3455590369
C        0.3514402132    0.5557109414    1.0332072805
C       -0.3678474536   -0.5078414996    1.5899461138
N       -1.2801205869   -1.3423675242    1.0954270254
C        1.2184188379    0.1072148279   -1.3895186499
C       -0.0168271231    0.3976430717   -1.6044407945
H        0.8348411299    2.0829574436   -0.3756101928
H        0.9251459796    1.1152064603    1.7726018171
H       -0.1592921070   -0.7020924745    2.6421167659
H        2.1466116793   -0.3888948620   -1.6254935182
H       -0.9245468051    0.3075559905   -2.1796636868
13   
Iteration 17 Energy -340.96807293
C       -1.8562324468   -1.2739144038   -0.0792192829
N       -2.4957228770   -1.3272615014   -1.0678417941
C        0.5538262197    1.0249358418   -0.3462219042
C        0.3486561275    0.5569656170    1.0327850938
C       -0.3654341038   -0.5105008106    1.5883426389
N       -1.2769255120   -1.3455254603    1.0929903768
C        1.2208514922    0.1058613394   -1.3854846653
C       -0.0145947155    0.3922158750   -1.6055059255
H        0.8299534534    2.0829961479   -0.3794978088
H        0.9219388042    1.1172909223    1.7719021716
H       -0.1524796371   -0.7087034959    2.6389046862
H        2.1540784459   -0.3817274114   -1.6196677790
H       -0.9206690185    0.2972434968   -2.1823969984
13   
Iteration 16 Energy -340.96805526
C       -1.8561818568   -1.2689808476   -0.0798718186
N       -2.5035883821   -1.3106169153   -1.0638108970
C        0.5510558933    1.0270604405   -0.3474235753
C        0.3462674609    0.5598607422    1.0319582057
C       -0.3600524911   -0.5142988734    1.5849808141
N       -1.2681548055   -1.3517487967    1.0875399631
C        1.2228241434    0.1054407119   -1.3828182042
C       -0.0130225540    0.3882139729   -1.6050074652
H        0.8223296648    2.0863508165   -0.3817301917
H        0.9133685222    1.1249620976    1.7721761811
H       -0.1432510352   -0.7163423727    2.6340540364
H        2.1537351240   -0.3905613186   -1.6079143037
H       -0.9180834516    0.2905364995   -2.1830439354
13   
Iteration 15 Energy -340.96802901
C       -1.8556998046   -1.2655851700   -0.0792418352
N       -2.5100614577   -1.2955883495   -1.0589476664
C        0.5480212095    1.0272182953   -0.3479269890
C        0.3408301655    0.5634678014    1.0320115934
C       -0.3564937206   -0.5172901537    1.5831084942
N       -1.2597964662   -1.3588381359    1.0835412372
C        1.2220012814    0.1009398116   -1.3772758900
C       -0.0119360238    0.3852467011   -1.6059291030
H        0.8218314831    2.0856697072   -0.3856544764
H        0.9042479436    1.1320024733    1.7723772030
H       -0.1351743389   -0.7227179135    2.6306003970
H        2.1550358177   -0.3917132612   -1.6011536209
H       -0.9155598567    0.2870643509   -2.1864205345
13   
Iteration 14 Energy -340.96800217
C       -1.8540061620   -1.2637890782   -0.0792287502
N       -2.5133608793   -1.2846384190   -1.0557209303
C        0.5463904266    1.0280893293   -0.3486585703
C        0.3374527216    0.5659372719    1.0314235009
C       -0.3532582981   -0.5198327588    1.5813282025
N       -1.2524008445   -1.3649728010    1.0801568624
C        1.2213757811    0.0986544733   -1.3754843501
C       -0.0122232553    0.3841316120   -1.6066434989
H        0.8209551814    2.0861614305   -0.3877781903
H        0.8965668204    1.1379683882    1.7723738292
H       -0.1293272521   -0.7268539165    2.6279732424
H        2.1541232024   -0.3975135127   -1.5924817522
H       -0.9150412100    0.2865341376   -2.1881707857
13   
Iteration 13 Energy -340.96797736
C       -1.8522189834   -1.2628445033   -0.0789165551
N       -2.5148738300   -1.2767981877   -1.0532358172
C        0.5452989942    1.0280951900   -0.3489363769
C        0.3344149462    0.5677871930    1.0314711033
C       -0.3513176098   -0.5214439782    1.5806138174
N       -1.2470049381   -1.3696889493    1.0782753465
C        1.2209695825    0.0964449842   -1.3728235714
C       -0.0111323428    0.3835731030   -1.6071694737
H        0.8201095443    2.0861481811   -0.3885822818
H        0.8897638109    1.1429599960    1.7727647942
H       -0.1255875823   -0.7292948688    2.6267137936
H        2.1521015770   -0.4023028579   -1.5909639590
H       -0.9132769365    0.2872408547   -2.1901220105
13   
Iteration 12 Energy -340.96795548
C       -1.8508372827   -1.2624158726   -0.0786416018
N       -2.5165540124   -1.2702123081   -1.0508893845
C        0.5448825806    1.0277756289   -0.3492846916
C        0.3320140892    0.5687604255    1.0312487857
C       -0.3502786848   -0.5226856109    1.5801444237
N       -1.2425229363   -1.3739846112    1.0765910337
C        1.2202063149    0.0949556281   -1.3732828308
C       -0.0117095359    0.3834305213   -1.6080100314
H        0.8220550230    2.0850301322   -0.3903516696
H        0.8847968737    1.1460923547    1.7727964397
H       -0.1235608583   -0.7307412779    2.6260152720
H        2.1527982580   -0.4032094050   -1.5864407667
H       -0.9140435970    0.2870805516   -2.1908061691
13   
Iteration 11 Energy -340.96793722
C       -1.8493069052   -1.2621788302   -0.0784607919
N       -2.5170603395   -1.2655155860   -1.0492806531
C        0.5452715824    1.0273407056   -0.3493300448
C        0.3305238808    0.5696074697    1.0314709919
C       -0.3495022266   -0.5234790944    1.5801648342
N       -1.2389628328   -1.3770199386    1.0754658611
C        1.2202463400    0.0941399086   -1.3726198285
C       -0.0111417888    0.3833782321   -1.6088523247
H        0.8214029630    2.0849101257   -0.3897860815
H        0.8804076795    1.1492148029    1.7734032568
H       -0.1226857957   -0.7313703141    2.6260534252
H        2.1512475570   -0.4064657287   -1.5872355486
H       -0.9131938818    0.2873144042   -2.1919042868
13   
Iteration 10 Energy -340.96792196
C       -1.8480997488   -1.2625190882   -0.0785049478
N       -2.5171849088   -1.2631901750   -1.0484235484
C        0.5448986839    1.0274120620   -0.3489349955
C        0.3288725415    0.5704254867    1.0316736199
C       -0.3490328631   -0.5237395129    1.5799334542
N       -1.2363994497   -1.3791593614    1.0744558974
C        1.2196567027    0.0959488602   -1.3727246189
C       -0.0116161940    0.3834670726   -1.6098248023
H        0.8246554679    2.0840559985   -0.3894009746
H        0.8781906496    1.1505651374    1.7735674012
H       -0.1221440904   -0.7313570249    2.6258506364
H        2.1490763159   -0.4082874196   -1.5856887611
H       -0.9136268744    0.2862541213   -2.1928895512
13   
Iteration 9 Energy -340.96790000
C       -1.8470877277   -1.2630977057   -0.0786454471
N       -2.5164187755   -1.2627721249   -1.0483550599
C        0.5440415282    1.0280998098   -0.3472736665
C        0.3276622133    0.5711975792    1.0323899951
C       -0.3490794406   -0.5238449151    1.5801584814
N       -1.2350182577   -1.3802880435    1.0740906033
C        1.2203138533    0.0985359057   -1.3712469374
C       -0.0118621928    0.3837881927   -1.6101446550
H        0.8280472089    2.0830827027   -0.3900340160
H        0.8765157237    1.1514776758    1.7745225810
H       -0.1226433016   -0.7310549354    2.6262630338
H        2.1463524817   -0.4106445261   -1.5888561951
H       -0.9135770811    0.2853965415   -2.1937799083
13   
Iteration 8 Energy -340.96779610
C       -1.8440110179   -1.2583712955   -0.0746362470
N       -2.5190388287   -1.2418978839   -1.0398160977
C        0.5427058264    1.0225623720   -0.3501844757
C        0.3256888363    0.5714022188    1.0333892501
C       -0.3423405221   -0.5304403234    1.5808408427
N       -1.2232273490   -1.3903844535    1.0728380886
C        1.2188537621    0.0830505916   -1.3730636489
C       -0.0099883102    0.3811832854   -1.6141317749
H        0.8160422057    2.0806501479   -0.3919790395
H        0.8561413671    1.1667759339    1.7769245783
H       -0.1160000693   -0.7365822179    2.6273069520
H        2.1508039780   -0.4159537808   -1.5839651767
H       -0.9083836460    0.2978815621   -2.2044344421
13   
Iteration 7 Energy -340.96755736
C       -1.8430611266   -1.2487304276   -0.0749959299
N       -2.5162654715   -1.2201489236   -1.0409130078
C        0.5557930743    1.0118821711   -0.3518557302
C        0.3110259312    0.5786067448    1.0368594060
C       -0.3424912295   -0.5339750190    1.5814123711
N       -1.2172162795   -1.3969998581    1.0684976672
C        1.2250337466    0.0821136409   -1.3777037968
C       -0.0077345662    0.3726223978   -1.6048865530
H        0.8223737009    2.0718522858   -0.3960605171
H        0.8260249459    1.1852616398    1.7821822496
H       -0.1091851718   -0.7467599431    2.6251433033
H        2.1560407036   -0.4121420016   -1.6057498161
H       -0.9130920252    0.2862934495   -2.1828408369
13   
Iteration 6 Energy -340.96621359
C       -1.8431598601   -1.2439094796   -0.0756300434
N       -2.5116877852   -1.2160498233   -1.0444991191
C        0.5380951582    1.0211582310   -0.3377331610
C        0.2938663428    0.5927038632    1.0460513039
C       -0.3449701106   -0.5349208278    1.5833220154
N       -1.2169430694   -1.3964814774    1.0681854825
C        1.2415570870    0.0645534912   -1.4068330997
C        0.0083970474    0.3743340833   -1.5864664822
H        0.8198868456    2.0757935681   -0.3933960388
H        0.7996555196    1.2038799639    1.7935732931
H       -0.0994603442   -0.7581807401    2.6221978904
H        2.1642465431   -0.4388701089   -1.6515948859
H       -0.9022371421    0.2858654130   -2.1580883460
13   
Iteration 5 Energy -340.96293071
C       -1.8438962633   -1.2421850706   -0.0759602094
N       -2.5099890901   -1.2160303757   -1.0461067954
C        0.5130810083    1.0364438374   -0.3212706921
C        0.2833491080    0.6030437995    1.0522458170
C       -0.3472638325   -0.5353017039    1.5836769775
N       -1.2178450793   -1.3950727482    1.0690708181
C        1.2543415043    0.0439412010   -1.4391735830
C        0.0227344504    0.3773936721   -1.5715085078
H        0.8178768184    2.0810650891   -0.3881526485
H        0.7835788022    1.2156590275    1.8019626645
H       -0.0925043667   -0.7650110371    2.6189149801
H        2.1743771114   -0.4611272590   -1.6840358775
H       -0.8905939390    0.2870577246   -2.1405741343
13   
Iteration 4 Energy -340.95867209
C       -1.8447450012   -1.2415385401   -0.0759072595
N       -2.5091924837   -1.2172415882   -1.0469440677
C        0.4858766005    1.0526649422   -0.3033446984
C        0.2742697334    0.6127331642    1.0572828544
C       -0.3499643799   -0.5358645079    1.5836491360
N       -1.2188747379   -1.3938008787    1.0704701598
C        1.2648224448    0.0238571246   -1.4715034222
C        0.0370257477    0.3802015079   -1.5574934565
H        0.8192484672    2.0875999102   -0.3826770920
H        0.7687623107    1.2255881484    1.8100770957
H       -0.0862226658   -0.7705625807    2.6157299410
H        2.1852294979   -0.4819692160   -1.7145197621
H       -0.8789893016    0.2882086707   -2.1257306192
13   
Iteration 3 Energy -340.95446588
C       -1.8453574176   -1.2411491606   -0.0762480885
N       -2.5079154679   -1.2191345674   -1.0476847500
C        0.4588338116    1.0697014375   -0.2842608185
C        0.2658705642    0.6227765916    1.0609603870
C       -0.3531542503   -0.5364161242    1.5834110336
N       -1.2195310453   -1.3919601563    1.0726411714
C        1.2762280660    0.0035897232   -1.5025279864
C        0.0514858584    0.3822826882   -1.5437825541
H        0.8208903769    2.0912638849   -0.3716926317
H        0.7542152427    1.2374698466    1.8159565015
H       -0.0812755649   -0.7754013628    2.6125190312
H        2.1932971910   -0.5019725520   -1.7483185472
H       -0.8663411324    0.2888259078   -2.1118839391
13   
Iteration 2 Energy -340.95119643
C       -1.8455650813   -1.2417797142   -0.0757525071
N       -2.5058134017   -1.2226044208   -1.0479941071
C        0.4301203307    1.0854358142   -0.2640208377
C        0.2574639576    0.6347487095    1.0657570325
C       -0.3575758526   -0.5370447419    1.5844299397
N       -1.2201593968   -1.3903893911    1.0755805205
C        1.2877616330   -0.0136887906   -1.5303141350
C        0.0679310081    0.3851152538   -1.5299717515
H        0.8286701465    2.0926185806   -0.3651915424
H        0.7327872495    1.2502615531    1.8279007406
H       -0.0754289388   -0.7804307077    2.6101739147
H        2.1980191925   -0.5234210764   -1.7916256198
H       -0.8509646144    0.2910550883   -2.0998828382
13   
Iteration 1 Energy -340.94953586
C       -1.8450954073   -1.2386111208   -0.0772444035
N       -2.5018030954   -1.2220115967   -1.0510032463
C        0.4164451424    1.0986412018   -0.2460844567
C        0.2478672143    0.6460344897    1.0687844772
C       -0.3602441462   -0.5373594901    1.5844518337
N       -1.2217893627   -1.3863729347    1.0776038475
C        1.3032464820   -0.0361175101   -1.5537152549
C        0.0874012634    0.3852060660   -1.5136988084
H        0.8007072948    2.1108059423   -0.3494721686
H        0.7269159936    1.2555440588    1.8334421685
H       -0.0747259103   -0.7827024209    2.6089173985
H        2.2007058804   -0.5531402724   -1.8385414226
H       -0.8323851170    0.2899597438   -2.0843511551
13   
Iteration 0 Energy -340.94931067
C       -1.8462315650   -1.2418956745   -0.0739426304
N       -2.5016850512   -1.2290012000   -1.0479411144
C        0.3938283504    1.1089544567   -0.2351356568
C        0.2450472053    0.6499257644    1.0700552312
C       -0.3638789803   -0.5381152334    1.5871835379
N       -1.2247533426   -1.3852957184    1.0839456314
C        1.3114454894   -0.0429314266   -1.5679662185
C        0.0984558062    0.3891247819   -1.5097035954
H        0.8114747602    2.1077447208   -0.3408080552
H        0.7129491135    1.2636316612    1.8380930267
H       -0.0719808927   -0.7843706917    2.6098421408
H        2.2010288941   -0.5645377244   -1.8673441183
H       -0.8184535551    0.2966424407   -2.0871893697
13   
Iteration 1 Energy -340.94947687
C       -1.8443874583   -1.2411397422   -0.0766510773
N       -2.4989616987   -1.2292527075   -1.0506236471
C        0.3702912097    1.1233108578   -0.2240877332
C        0.2431420698    0.6569251757    1.0708874691
C       -0.3646616781   -0.5383327791    1.5857081783
N       -1.2240762840   -1.3830433704    1.0834736383
C        1.3160879960   -0.0530638855   -1.5761916966
C        0.1059694140    0.3871823791   -1.4975511830
H        0.8200182407    2.1074509676   -0.3356245639
H        0.7007595215    1.2724342832    1.8434343095
H       -0.0656143272   -0.7886666589    2.6054691745
H        2.1979887991   -0.5771778717   -1.8899904076
H       -0.8093095723    0.2932495085   -2.0791636517
13   
Iteration 2 Energy -340.95063684
C       -1.8430312765   -1.2361176641   -0.0776101664
N       -2.4928805165   -1.2264021006   -1.0543164283
C        0.3660769676    1.1297288068   -0.2080054574
C        0.2331289036    0.6690808180    1.0795796921
C       -0.3652990506   -0.5379330167    1.5879795059
N       -1.2244142861   -1.3785307212    1.0844185775
C        1.3348714197   -0.0763714066   -1.5940772382
C        0.1300363121    0.3885044553   -1.4842561027
H        0.7718782419    2.1339662900   -0.3192361930
H        0.6942292891    1.2793427604    1.8547064666
H       -0.0660068456   -0.7922336549    2.6067356382
H        2.1924419592   -0.6174624138   -1.9488650183
H       -0.7837848859    0.2943040040   -2.0679644666
13   
Iteration 3 Energy -340.95098474
C       -1.8421286107   -1.2369927790   -0.0774783856
N       -2.4914530423   -1.2282057382   -1.0541954758
C        0.3609718706    1.1326046807   -0.2053438112
C        0.2322801139    0.6706356065    1.0800043988
C       -0.3658726757   -0.5385128192    1.5888323386
N       -1.2236940289   -1.3786259639    1.0853837020
C        1.3369331012   -0.0783867701   -1.5961777715
C        0.1345759556    0.3874308080   -1.4812211478
H        0.7802785557    2.1305063804   -0.3176948975
H        0.6832167375    1.2849675389    1.8574176167
H       -0.0643942186   -0.7929265622    2.6070659396
H        2.1876430868   -0.6200816195   -1.9603473668
H       -0.7811106128    0.2974633944   -2.0671563303
13   
Iteration 4 Energy -340.95149594
C       -1.8411574399   -1.2373497955   -0.0772864656
N       -2.4895331453   -1.2297427725   -1.0544093615
C        0.3556381253    1.1360882323   -0.2010773796
C        0.2299881573    0.6734194337    1.0815501993
C       -0.3665666537   -0.5388411639    1.5900026124
N       -1.2232890577   -1.3783316573    1.0865010345
C        1.3412356280   -0.0826896910   -1.5998706413
C        0.1410197276    0.3867910443   -1.4768001936
H        0.7823450886    2.1308280660   -0.3140719990
H        0.6722182008    1.2911019649    1.8612716823
H       -0.0631149930   -0.7939691621    2.6075311947
H        2.1826716518   -0.6279270574   -1.9794440583
H       -0.7742090576    0.3004987152   -2.0648078151
13   
Iteration 5 Energy -340.95229956
C       -1.8398881774   -1.2372930288   -0.0770583245
N       -2.4869497973   -1.2311836269   -1.0550955633
C        0.3492713113    1.1408958811   -0.1946655656
C        0.2256459688    0.6775737906    1.0844607190
C       -0.3675459097   -0.5387188653    1.5915554540
N       -1.2234013986   -1.3778332169    1.0878083915
C        1.3487003543   -0.0892850726   -1.6045555550
C        0.1488294043    0.3870545567   -1.4705080520
H        0.7785301515    2.1359517139   -0.3073387334
H        0.6602693531    1.2986822423    1.8665789915
H       -0.0623027248   -0.7955095605    2.6080039550
H        2.1770021431   -0.6429379401   -2.0103161180
H       -0.7609144464    0.3024792833   -2.0597807899
13   
Iteration 6 Energy -340.95233418
C       -1.8397547868   -1.2372488706   -0.0771116985
N       -2.4866991264   -1.2311940966   -1.0551837599
C        0.3492509864    1.1410475253   -0.1944365151
C        0.2255959464    0.6777429761    1.0845940847
C       -0.3675464241   -0.5387026023    1.5916199658
N       -1.2233463345   -1.3777634514    1.0878499437
C        1.3491537113   -0.0895876724   -1.6046377549
C        0.1494642216    0.3870080930   -1.4702335925
H        0.7783866621    2.1358915532   -0.3070721316
H        0.6598914577    1.2988381300    1.8667162773
H       -0.0622684242   -0.7955079042    2.6080902803
H        2.1762321804   -0.6431056616   -2.0109574261
H       -0.7611138377    0.3024581382   -2.0601488641
13   
Iteration 7 Energy -340.95238221
C       -1.8396153816   -1.2372130067   -0.0771521395
N       -2.4864265173   -1.2312415710   -1.0552721432
C        0.3490770201    1.1412880085   -0.1940926029
C        0.2254417084    0.6779896351    1.0847770600
C       -0.3675747396   -0.5386908328    1.5917122373
N       -1.2233010061   -1.3776921808    1.0879189359
C        1.3496932713   -0.0899942962   -1.6048162685
C        0.1502045218    0.3869639666   -1.4698524154
H        0.7781434583    2.1359880162   -0.3066950100
H        0.6592736934    1.2991566117    1.8669728786
H       -0.0622184354   -0.7955365199    2.6081751690
H        2.1754477750   -0.6436462009   -2.0122955456
H       -0.7608991361    0.3025045270   -2.0602913464
13   
Iteration 8 Energy -340.95244948
C       -1.8394448701   -1.2371738087   -0.0771943041
N       -2.4860833146   -1.2313213159   -1.0553808635
C        0.3487740585    1.1416304678   -0.1936056970
C        0.2251862273    0.6783389755    1.0850295206
C       -0.3676281932   -0.5386813348    1.5918404691
N       -1.2232527230   -1.3776039215    1.0880187206
C        1.3503920562   -0.0905490018   -1.6050898997
C        0.1511725922    0.3869102613   -1.4693285946
H        0.7777626816    2.1362225759   -0.3061736141
H        0.6583780914    1.2996414894    1.8673661637
H       -0.0621501335   -0.7955890074    2.6082757533
H        2.1744882432   -0.6445516173   -2.0143750789
H       -0.7603484838    0.3026023942   -2.0602937662
13   
Iteration 9 Energy -340.95254475
C       -1.8392252663   -1.2371288603   -0.0772390907
N       -2.4856351053   -1.2314450908   -1.0555211084
C        0.3483005199    1.1421143740   -0.1929203671
C        0.2247947532    0.6788303846    1.0853804731
C       -0.3677131961   -0.5386729448    1.5920198925
N       -1.2231984507   -1.3774911811    1.0881607863
C        1.3513300192   -0.0913170475   -1.6054927695
C        0.1524654069    0.3868424572   -1.4686016199
H        0.7771971563    2.1366364542   -0.3054497619
H        0.6570952060    1.3003560277    1.8679456787
H       -0.0620566808   -0.7956745636    2.6084009546
H        2.1732501574   -0.6459425763   -2.0174626695
H       -0.7593582876    0.3027687236   -2.0601315888
13   
Iteration 10 Energy -340.95268061
C       -1.8389727649   -1.2370914402   -0.0772536828
N       -2.4851132582   -1.2316430314   -1.0556858510
C        0.3475239311    1.1427880127   -0.1919679121
C        0.2241585931    0.6795083096    1.0858618906
C       -0.3678510001   -0.5386694158    1.5922680642
N       -1.2231661800   -1.3773701947    1.0883561260
C        1.3525343961   -0.0923522737   -1.6060913993
C        0.1540287028    0.3867906173   -1.4676263068
H        0.7763154238    2.1374706202   -0.3044703424
H        0.6552380288    1.3014530653    1.8688314931
H       -0.0619400875   -0.7958379960    2.6085259374
H        2.1718429842   -0.6482275289   -2.0222422617
H       -0.7573525368    0.3030574121   -2.0594169459
13   
Iteration 11 Energy -340.95287562
C       -1.8385421602   -1.2369962675   -0.0773421185
N       -2.4842235570   -1.2318811093   -1.0559722083
C        0.3466148603    1.1437260538   -0.1906155239
C        0.2233479758    0.6804954203    1.0865749340
C       -0.3680212130   -0.5386580360    1.5926283488
N       -1.2230634539   -1.3771464126    1.0886318722
C        1.3543784043   -0.0938653257   -1.6068557953
C        0.1566119773    0.3866560315   -1.4661925758
H        0.7750217827    2.1384347726   -0.3030466559
H        0.6526582544    1.3028875822    1.8700431470
H       -0.0617703640   -0.7960134381    2.6087736199
H        2.1693742295   -0.6511609473   -2.0286220352
H       -0.7551405040    0.3033978328   -2.0589161998
13   
Iteration 12 Energy -340.95313764
C       -1.8381885868   -1.2370011996   -0.0772038428
N       -2.4835244435   -1.2323297435   -1.0562123447
C        0.3448573351    1.1449797193   -0.1888360897
C        0.2218820632    0.6817290418    1.0874828766
C       -0.3683023585   -0.5386572483    1.5931050862
N       -1.2231347282   -1.3770437681    1.0889788838
C        1.3565032613   -0.0957696443   -1.6080545174
C        0.1587746247    0.3867155704   -1.4644411919
H        0.7731184177    2.1407847747   -0.3012806788
H        0.6488675389    1.3053261560    1.8719461733
H       -0.0616005021   -0.7964855089    2.6088651512
H        2.1674237832   -0.6564624957   -2.0391004350
H       -0.7494301730    0.3040905030   -2.0561602616
13   
Iteration 13 Energy -340.95353344
C       -1.8372882117   -1.2367980605   -0.0774233393
N       -2.4816753393   -1.2327673661   -1.0567976740
C        0.3433243478    1.1467308923   -0.1863009202
C        0.2204308754    0.6836126126    1.0888642930
C       -0.3685904112   -0.5386294383    1.5938066378
N       -1.2228791806   -1.3765806419    1.0895133398
C        1.3601642776   -0.0987173160   -1.6094046193
C        0.1640565459    0.3863481334   -1.4616196921
H        0.7706441873    2.1423782233   -0.2985751368
H        0.6439907079    1.3079341807    1.8741824247
H       -0.0612698011   -0.7967599582    2.6094151639
H        2.1621106767   -0.6616564564   -2.0507682868
H       -0.7457724426    0.3047813518   -2.0558033814
13   
Iteration 14 Energy -340.95412117
C       -1.8359095212   -1.2364899460   -0.0776719904
N       -2.4789372431   -1.2333939996   -1.0576850561
C        0.3411930188    1.1492676991   -0.1825893343
C        0.2181987673    0.6863434769    1.0910101233
C       -0.3689313208   -0.5385440892    1.5948960159
N       -1.2225359840   -1.3759597231    1.0902675680
C        1.3658413552   -0.1031220207   -1.6112143795
C        0.1715853536    0.3859230473   -1.4574058243
H        0.7668087969    2.1450558185   -0.2945462116
H        0.6364405957    1.3120473507    1.8776080685
H       -0.0608246384   -0.7972822865    2.6102322216
H        2.1540087426   -0.6697444308   -2.0688151204
H       -0.7396916904    0.3057752601   -2.0549972714
13   
Iteration 15 Energy -340.95413078
C       -1.8359072673   -1.2364929464   -0.0776656923
N       -2.4789274497   -1.2334097384   -1.0576884394
C        0.3411328143    1.1493002194   -0.1825410105
C        0.2181445901    0.6863783491    1.0910357022
C       -0.3689431545   -0.5385475448    1.5949090317
N       -1.2225417981   -1.3759604015    1.0902773418
C        1.3658798251   -0.1031686865   -1.6112488724
C        0.1716326832    0.3859244595   -1.4573624479
H        0.7667311814    2.1451619472   -0.2945018534
H        0.6363221401    1.3121281823    1.8776764948
H       -0.0608210263   -0.7972977614    2.6102292990
H        2.1539775588   -0.6699438176   -2.0691855184
H       -0.7394338647    0.3058038958   -2.0548452258
13   
Iteration 16 Energy -340.95414471
C       -1.8358909068   -1.2364923533   -0.0776619377
N       -2.4788919136   -1.2334291614   -1.0577005303
C        0.3410619138    1.1493527248   -0.1824640194
C        0.2180766695    0.6864342073    1.0910793107
C       -0.3689556094   -0.5385489981    1.5949311571
N       -1.2225436240   -1.3759551910    1.0902927520
C        1.3659719867   -0.1032533717   -1.6112957053
C        0.1717453369    0.3859221138   -1.4572831688
H        0.7666270830    2.1452784909   -0.2944246354
H        0.6361457566    1.3122382389    1.8777682344
H       -0.0608137029   -0.7973167986    2.6102349115
H        2.1538664667   -0.6701918136   -2.0696780045
H       -0.7391532242    0.3058380687   -2.0547095552
13   
Iteration 17 Energy -340.95416432
C       -1.8358654397   -1.2364905183   -0.0776576347
N       -2.4788379163   -1.2334557711   -1.0577190476
C        0.3409653775    1.1494274529   -0.1823542065
C        0.2179825756    0.6865139217    1.0911421336
C       -0.3689722273   -0.5385504797    1.5949629578