13   
Iteration 0 Energy -340.94871853
C       -1.6111089220   -1.3810859214   -0.0452687591
N       -2.2331811217   -1.4955936964   -1.0349982144
C        0.4401482367    1.1664502070   -0.2092799959
C        0.3260622365    0.7211705637    1.1016165728
C       -0.2352519390   -0.4829435217    1.6344208741
N       -1.0187695498   -1.4043035377    1.1336861878
C        1.2653679432   -0.0842713557   -1.5365187318
C        0.0868723657    0.4265480624   -1.4558548935
H        0.8654163116    2.1593939026   -0.3435190453
H        0.7872355701    1.3526993180    1.8603243033
H        0.0418858952   -0.6802270830    2.6711647542
H        2.1315305337   -0.6684443183   -1.7708771380
H       -0.8483034371    0.3676614426   -2.0073772703
13   
Iteration 1 Energy -340.94880941
C       -1.6185435480   -1.3873003283   -0.0369133878
N       -2.2428812899   -1.5049449988   -1.0247962464
C        0.4418675901    1.1649508311   -0.2110717268
C        0.3248184711    0.7178050915    1.0993461674
C       -0.2381568616   -0.4841020628    1.6360127141
N       -1.0236326384   -1.4065467193    1.1408538154
C        1.2707339348   -0.0783449659   -1.5407924404
C        0.0915122322    0.4319364578   -1.4624578505
H        0.8689471999    2.1576032075   -0.3411475254
H        0.7866790778    1.3491614022    1.8575640128
H        0.0400418481   -0.6781353168    2.6731487146
H        2.1380037929   -0.6617056268   -1.7741561930
H       -0.8414510655    0.3766151106   -2.0181293077
13   
Iteration 2 Energy -340.94893278
C       -1.6281311507   -1.3888930849   -0.0238631962
N       -2.2551736436   -1.5023699752   -1.0103324929
C        0.4412564584    1.1581924107   -0.2134085360
C        0.3213044667    0.7109494449    1.0971960364
C       -0.2424615529   -0.4875406617    1.6419338075
N       -1.0310529373   -1.4098475112    1.1532977768
C        1.2817166606   -0.0700210819   -1.5486589590
C        0.0982881990    0.4326151584   -1.4710545872
H        0.8679115081    2.1513797735   -0.3392639063
H        0.7835794288    1.3447808837    1.8524747691
H        0.0374518118   -0.6767100464    2.6797079505
H        2.1543403196   -0.6445229428   -1.7873829412
H       -0.8309116537    0.3786750990   -2.0334263431
13   
Iteration 3 Energy -340.94907200
C       -1.6409171085   -1.3810787396   -0.0115692905
N       -2.2739187975   -1.4802243103   -0.9956087854
C        0.4378748961    1.1479621864   -0.2155856551
C        0.3178373210    0.7035957917    1.0963038667
C       -0.2452964042   -0.4924697165    1.6473557683
N       -1.0392546664   -1.4126783842    1.1638488524
C        1.2981323726   -0.0609853704   -1.5535072123
C        0.1056117750    0.4207508059   -1.4751691743
H        0.8584354950    2.1435484505   -0.3415568958
H        0.7796637930    1.3418989850    1.8476912047
H        0.0376250018   -0.6792077762    2.6848958992
H        2.1816184035   -0.6133577500   -1.8068752717
H       -0.8197531705    0.3582822367   -2.0431164863
13   
Iteration 4 Energy -340.94920513
C       -1.6613630158   -1.3639301072    0.0005561223
N       -2.3052941008   -1.4417925867   -0.9782035703
C        0.4323638012    1.1365471040   -0.2185450546
C        0.3151078889    0.6964758558    1.0955268611
C       -0.2456360006   -0.4988743307    1.6497571696
N       -1.0490635898   -1.4134379235    1.1704927435
C        1.3223057680   -0.0488877260   -1.5527646121
C        0.1162677097    0.3987875163   -1.4765930048
H        0.8390761512    2.1373154999   -0.3476274928
H        0.7748711588    1.3398358388    1.8437910810
H        0.0436114455   -0.6881584161    2.6851467606
H        2.2174596251   -0.5723455930   -1.8278784004
H       -0.8056620898    0.3145904101   -2.0472645097
13   
Iteration 5 Energy -340.94928051
C       -1.6836683236   -1.3440300820    0.0101850856
N       -2.3391662166   -1.4025848785   -0.9621763509
C        0.4266805761    1.1284944916   -0.2220040431
C        0.3130326761    0.6916497568    1.0938848318
C       -0.2435228840   -0.5052002694    1.6484230359
N       -1.0580484520   -1.4118437849    1.1724241094
C        1.3467036730   -0.0361902346   -1.5485062728
C        0.1284565580    0.3785603953   -1.4778865987
H        0.8164144076    2.1355237731   -0.3540052955
H        0.7692389560    1.3390876933    1.8408608155
H        0.0555109106   -0.7016097847    2.6797273369
H        2.2482269208   -0.5399604302   -1.8410580855
H       -0.7912936186    0.2673336818   -2.0474001440
13   
Iteration 6 Energy -340.94931021
C       -1.7151647551   -1.3146947345    0.0157523432
N       -2.3816170288   -1.3524461364   -0.9501158910
C        0.4208691666    1.1242532331   -0.2267273138
C        0.3067147107    0.6900605330    1.0903722787
C       -0.2462171572   -0.5095214887    1.6423920797
N       -1.0756218157   -1.4041154922    1.1691739833
C        1.3684165128   -0.0228553626   -1.5434763776
C        0.1404117368    0.3638646383   -1.4809289225
H        0.7962901680    2.1363970092   -0.3604022030
H        0.7580039095    1.3402978646    1.8379991316
H        0.0663607612   -0.7184271371    2.6672394169
H        2.2748880672   -0.5150288590   -1.8419655523
H       -0.7776254198    0.2243984160   -2.0470273390
13   
Iteration 7 Energy -340.94931043
C       -1.7909850821   -1.2940504753   -0.0391533974
N       -2.4587065536   -1.2944909469   -1.0048660072
C        0.4155293709    1.0847188353   -0.2398454967
C        0.2893845635    0.6306314951    1.0694038085
C       -0.2979585098   -0.5622390926    1.6002138073
N       -1.1540110676   -1.4230290178    1.1120147293
C        1.3308575249   -0.0627570590   -1.5783274596
C        0.1133774758    0.3542938690   -1.5067029875
H        0.8189117272    2.0881871845   -0.3560658048
H        0.7590955080    1.2542888055    1.8282778825
H        0.0093539525   -0.7990845319    2.6205820558
H        2.2237912902   -0.5749963921   -1.8836080781
H       -0.8093194290    0.2476337558   -2.0724355085
13   
Iteration 8 Energy -340.94931065
C       -1.8460823955   -1.2419345885   -0.0738167404
N       -2.5012851693   -1.2292128523   -1.0479756082
C        0.3937772395    1.1088173266   -0.2350957552
C        0.2450870398    0.6498550383    1.0701221082
C       -0.3639898888   -0.5380617690    1.5874570030
N       -1.2250232669   -1.3851245333    1.0843533922
C        1.3119071601   -0.0422763001   -1.5681383872
C        0.0985879428    0.3887927269   -1.5096268748
H        0.8110738320    2.1077429007   -0.3408232170
H        0.7129276670    1.2636769630    1.8381063062
H       -0.0721967004   -0.7841563209    2.6101859965
H        2.2011580256   -0.5638764831   -1.8685527750
H       -0.8184682117    0.2956680094   -2.0867953927
13   
Iteration 9 Energy -340.94931067
C       -1.8462315650   -1.2418956745   -0.0739426304
N       -2.5016850512   -1.2290012000   -1.0479411144
C        0.3938283504    1.1089544567   -0.2351356568
C        0.2450472053    0.6499257644    1.0700552312
C       -0.3638789803   -0.5381152334    1.5871835379
N       -1.2247533426   -1.3852957184    1.0839456314
C        1.3114454894   -0.0429314266   -1.5679662185
C        0.0984558062    0.3891247819   -1.5097035954
H        0.8114747602    2.1077447208   -0.3408080552
H        0.7129491135    1.2636316612    1.8380930267
H       -0.0719808927   -0.7843706917    2.6098421408
H        2.2010288941   -0.5645377244   -1.8673441183
H       -0.8184535551    0.2966424407   -2.0871893697
