13   
Climbing Image - Chain 7 Image 6 Energy  -340.9210956081 (+3.425 kcal/mol) RMSGrad 0.041 eV/Ang
C       -2.1240705393    1.4563154808   -0.7840807810
N       -1.2955798865    1.0125616537   -0.0724075148
C        0.9062671033   -0.0798864141   -0.1536761207
C       -0.2590999604    0.4431209487    0.7125695455
C       -0.8059764990   -0.7026804052    1.6030274316
N       -1.7750126698   -0.6011956343    2.3795263075
C        0.6886526125   -0.7593126391   -1.4730710116
C        1.1821509438    0.4386281599   -1.5291103965
H        1.7319094741   -0.3982651030    0.4943444423
H        0.1230452002    1.2215311599    1.3857149701
H       -0.2590165156   -1.6560592973    1.5109363205
H        0.3435289132   -1.6526134632   -1.9715548407
H        1.5433541596    1.2780256161   -2.1020803502
