3    
Climbing Image - Chain 32 Image 3 Energy   -92.2460170272 (+67.798 kcal/mol) RMSGrad 0.042 eV/Ang
C       -0.0519091549   -0.6447602898    0.0000000000
N       -0.6780456456    0.3584299778   -0.0000000000
H        0.7299548005    0.2863303120    0.0000000000
