13   
Iteration 0 Energy -340.96809906
C       -1.9018063955   -1.3153667681    0.1097656284
N       -2.5315670706   -1.4750999929   -0.8735978871
C        0.5121358478    0.9638541331   -0.3601317449
C        0.3089338735    0.6135044250    1.0532631493
C       -0.4175450625   -0.3910929306    1.7034922347
N       -1.3336762027   -1.2633622928    1.2883556208
C        1.1144976357   -0.0561483399   -1.3432388004
C       -0.1119093251    0.2680101411   -1.5590695247
H        0.8304604055    2.0041047179   -0.4759678132
H        0.8890460742    1.2298686079    1.7404796487
H       -0.2101363343   -0.4885377139    2.7692214863
H        2.0180625066   -0.6051297448   -1.5566084118
H       -1.0337386200    0.1712583321   -2.1099462295
13   
Iteration 1 Energy -340.96809901
C       -1.9014163757   -1.3149157536    0.1094139295
N       -2.5309683272   -1.4744837536   -0.8741123033
C        0.5123682820    0.9639495947   -0.3599501520
C        0.3091634733    0.6135758345    1.0534134513
C       -0.4174048789   -0.3909824870    1.7035591060
N       -1.3335383896   -1.2631149146    1.2881331537
C        1.1144134766   -0.0561712245   -1.3430113796
C       -0.1119922687    0.2680898114   -1.5587040233
H        0.8307431867    2.0041682894   -0.4759147376
H        0.8894763260    1.2297455779    1.7406301049
H       -0.2100059399   -0.4886378499    2.7692712855
H        2.0178938253   -0.6053066074   -1.5564306980
H       -1.0339385575    0.1713991061   -2.1094274407
