13   
step_01 start
C       -2.3529462870    0.3319045554   -1.2810367057
N       -1.5421395555    0.4137860973   -0.4295983527
C        0.8886526096    0.2177889071   -0.0891278586
C       -0.5051281960    0.4918755206    0.5324039884
C       -0.7382102267   -0.4683465655    1.7067785736
N       -1.6811037770   -1.2792389870    1.8201574433
C        1.1090489314   -0.8412598275   -1.1244244365
C        1.1529623589    0.3813826683   -1.5547124136
H        1.6739609935    0.4423948729    0.6421777269
H       -0.5013712448    1.5099340955    0.9480072091
H        0.0352725067   -0.4106301080    2.4897211317
H        1.1655460205   -1.9027904080   -1.3120601963
H        1.2738244304    1.0882152300   -2.3615362284
13   
step_01 end
C       -2.1493903218    2.6807027882    0.0191083789
N       -1.4467597900    1.8085581564    0.3861816039
C        0.4775171920    0.5020178363   -0.3245971076
C       -0.5630200240    0.7650057788    0.7852515981
C       -1.3218875940   -0.5020147657    1.1878511421
N       -2.5589172581   -0.6659147327    1.1436313839
C        1.0688251073   -0.8548535726   -0.5871233246
C        0.2100400853   -0.4368157296   -1.4645436537
H        1.0786035692    1.4009877298   -0.4973745377
H       -0.0320368589    1.1099353292    1.6847929473
H       -0.6750730889   -1.3160565784    1.5516014651
H        1.7718097749   -1.6017678749   -0.2488495496
H       -0.3326156140   -0.5750745379   -2.3872167221
