13   
Iteration 26 Energy -340.92222505
C       -1.4875635373    1.4544127051   -0.3380337413
N       -0.5139637143    0.9380161796    0.0812484102
C        1.5330198680   -0.2018790652   -0.6497239307
C        0.6701554824    0.2901820612    0.5297696302
C        0.2842160158   -0.8932930795    1.4559161336
N       -0.0899035393   -0.7529226290    2.6370944479
C        0.9312107704   -0.7200211412   -1.9244366924
C        1.4930231780    0.4458727973   -2.0008735151
H        2.4702401045   -0.6296552875   -0.2738929908
H        1.2414156759    1.0086942618    1.1294548181
H        0.3315313641   -1.8947019676    0.9969699577
H        0.3979282895   -1.5313827276   -2.3967631473
H        1.7707611830    1.3154354455   -2.5769050262
13   
Iteration 25 Energy -340.92222447
C       -1.4875645732    1.4544313628   -0.3380385500
N       -0.5139660327    0.9380304031    0.0812487925
C        1.5330082394   -0.2018727957   -0.6497229975
C        0.6701549115    0.2901863501    0.5297703352
C        0.2842136511   -0.8932637383    1.4559300536
N       -0.0899460311   -0.7528981997    2.6370891962
C        0.9312010086   -0.7200184780   -1.9244327502
C        1.4930203435    0.4458715540   -2.0008733547
H        2.4702536352   -0.6296680628   -0.2738843684
H        1.2414349177    1.0087495865    1.1294709185
H        0.3315923019   -1.8948340894    0.9969335807
H        0.3979093745   -1.5313821593   -2.3967602922
H        1.7707593945    1.3154258195   -2.5769062099
13   
Iteration 24 Energy -340.92218006
C       -1.4867750346    1.4555113570   -0.3377768968
N       -0.5138100559    0.9383539042    0.0817353371
C        1.5325201998   -0.2025692199   -0.6501453294
C        0.6697076455    0.2903560041    0.5294983428
C        0.2852809070   -0.8938880032    1.4563475531
N       -0.0972232308   -0.7529670840    2.6348186222
C        0.9300571424   -0.7195726684   -1.9249929868
C        1.4928849887    0.4458726687   -2.0010850823
H        2.4689712022   -0.6310092563   -0.2742751186
H        1.2417921764    1.0075778143    1.1287753259
H        0.3411432285   -1.8940829245    1.0010270059
H        0.3960127370   -1.5303123842   -2.3973482849
H        1.7715092349    1.3154873449   -2.5767541344
13   
Iteration 23 Energy -340.92214563
C       -1.4862626331    1.4566126599   -0.3376818599
N       -0.5137552352    0.9388553065    0.0820711747
C        1.5319395826   -0.2029102922   -0.6504037808
C        0.6695069922    0.2904259118    0.5293875383
C        0.2858850688   -0.8937493871    1.4568460163
N       -0.1028449295   -0.7526347808    2.6332053469
C        0.9291189826   -0.7192262876   -1.9252929518
C        1.4927721706    0.4458226703   -2.0011927169
H        2.4683357749   -0.6321892204   -0.2744112490
H        1.2422703377    1.0079991278    1.1285457305
H        0.3487331243   -1.8960004689    1.0031268259
H        0.3943844582   -1.5295561370   -2.3977307820
H        1.7719874467    1.3153084503   -2.5766449385
13   
Iteration 22 Energy -340.92211995
C       -1.4858749058    1.4572705203   -0.3375816766
N       -0.5137085551    0.9390658412    0.0823169029
C        1.5316119672   -0.2032618300   -0.6506289322
C        0.6692763304    0.2905131078    0.5292641247
C        0.2864475598   -0.8939973824    1.4571273726
N       -0.1070488756   -0.7526569403    2.6318718290
C        0.9284561455   -0.7189767643   -1.9256067395
C        1.4926996834    0.4458162883   -2.0013014836
H        2.4676273639   -0.6329581144   -0.2746512807
H        1.2426224024    1.0073654377    1.1282256633
H        0.3542788325   -1.8957971380    1.0054384979
H        0.3932852810   -1.5289462544   -2.3980890045
H        1.7723979114    1.3153207811   -2.5765609196
13   
Iteration 21 Energy -340.92210182
C       -1.4856049348    1.4577928683   -0.3375151531
N       -0.5136732116    0.9392743616    0.0824962298
C        1.5313416532   -0.2034792677   -0.6507733831
C        0.6691804159    0.2905287096    0.5292077364
C        0.2868302471   -0.8940757520    1.4573654824
N       -0.1100088205   -0.7526161152    2.6309667671
C        0.9279866868   -0.7188011652   -1.9257986910
C        1.4926577689    0.4457946073   -2.0013590567
H        2.4671954065   -0.6335573021   -0.2747885099
H        1.2428229011    1.0073104449    1.1280056828
H        0.3582055378   -1.8961744576    1.0068405087
H        0.3924671621   -1.5285161169   -2.3983283371
H        1.7726703284    1.3152767377   -2.5764949227
13   
Iteration 20 Energy -340.92208902
C       -1.4854328162    1.4582206842   -0.3374807387
N       -0.5136623067    0.9394517993    0.0826226040
C        1.5310942828   -0.2036023711   -0.6508585772
C        0.6692059949    0.2904437551    0.5292268959
C        0.2870331852   -0.8940717750    1.4575260847
N       -0.1121586921   -0.7525771806    2.6303270936
C        0.9276446919   -0.7186794881   -1.9259240369
C        1.4926476860    0.4457595167   -2.0013676572
H        2.4668765854   -0.6340239434   -0.2749297809
H        1.2429477173    1.0074353427    1.1278357085
H        0.3611432165   -1.8966178266    1.0078120100
H        0.3918661264   -1.5281892536   -2.3985318970
H        1.7728654695    1.3152082931   -2.5764333552
13   
Iteration 19 Energy -340.92207986
C       -1.4852948713    1.4584748351   -0.3374440207
N       -0.5136372405    0.9395522383    0.0827133345
C        1.5309695124   -0.2037194146   -0.6509326120
C        0.6691404549    0.2904769384    0.5291870306
C        0.2872567463   -0.8941231452    1.4576611736
N       -0.1136522718   -0.7525620682    2.6298545701
C        0.9274073887   -0.7185899274   -1.9260301069
C        1.4926213396    0.4457536357   -2.0014069854
H        2.4666717387   -0.6343160403   -0.2750022250
H        1.2430507139    1.0073967289    1.1277242443
H        0.3630745203   -1.8968096304    1.0085568894
H        0.3914568812   -1.5279748937   -2.3986555816
H        1.7730062283    1.3151982961   -2.5764013570
13   
Iteration 18 Energy -340.92207339
C       -1.4852014875    1.4586553740   -0.3374235437
N       -0.5136204287    0.9396280576    0.0827739686
C        1.5308830566   -0.2037982046   -0.6509845218
C        0.6690749050    0.2905250557    0.5291486475
C        0.2874194636   -0.8941380232    1.4577721317
N       -0.1147034745   -0.7525311932    2.6295209831
C        0.9272370957   -0.7185257625   -1.9261028043
C        1.4925961602    0.4457532669   -2.0014408575
H        2.4665508066   -0.6345173208   -0.2750387118
H        1.2431499931    1.0073861042    1.1276695521
H        0.3644195554   -1.8970382993    1.0090470617
H        0.3911649211   -1.5278330275   -2.3987342139
H        1.7731005742    1.3151915255   -2.5763833380
13   
Iteration 17 Energy -340.92206887
C       -1.4850852700    1.4587883467   -0.3373789568
N       -0.5135718351    0.9396812727    0.0828410563
C        1.5308384616   -0.2038873714   -0.6510247364
C        0.6690276629    0.2905401292    0.5291049992
C        0.2875224386   -0.8941742977    1.4578150706
N       -0.1154201174   -0.7525596479    2.6292688158
C        0.9271117524   -0.7184664715   -1.9261717999
C        1.4925857104    0.4457570895   -2.0014783570
H        2.4664796504   -0.6346724121   -0.2750952079
H        1.2430881864    1.0074702939    1.1275580493
H        0.3653481951   -1.8972080552    1.0095333312
H        0.3909459631   -1.5277170360   -2.3987925510
H        1.7732003426    1.3152057127   -2.5763553597
13   
Iteration 16 Energy -340.92206558
C       -1.4850289275    1.4588929488   -0.3373688637
N       -0.5135515587    0.9397364612    0.0828744157
C        1.5307963944   -0.2039260868   -0.6510472935
C        0.6689749731    0.2905900660    0.5290712453
C        0.2875988936   -0.8941384247    1.4578842210
N       -0.1159234974   -0.7525168424    2.6291054742
C        0.9270193066   -0.7184288683   -1.9262065170
C        1.4925664978    0.4457612205   -2.0015068222
H        2.4664738092   -0.6347747207   -0.2751005743
H        1.2431262385    1.0075845447    1.1275454680
H        0.3659812668   -1.8975696195    1.0097381287
H        0.3907878764   -1.5276554524   -2.3988166797
H        1.7732498681    1.3152023264   -2.5763478490
13   
Iteration 15 Energy -340.92206292
C       -1.4849955676    1.4589884299   -0.3373751522
N       -0.5135400469    0.9398063610    0.0828904398
C        1.5307551652   -0.2039309373   -0.6510554030
C        0.6689212825    0.2906527297    0.5290382803
C        0.2876235278   -0.8940221170    1.4579551309
N       -0.1162214052   -0.7524217305    2.6290221586
C        0.9269496117   -0.7183992597   -1.9262141224
C        1.4925430355    0.4457669436   -2.0015328719
H        2.4665558695   -0.6348493177   -0.2750649292
H        1.2431828432    1.0078500301    1.1275955996
H        0.3663638732   -1.8982245216    1.0097202752
H        0.3906646284   -1.5276382691   -2.3988085962
H        1.7732683237    1.3151792114   -2.5763464557
13   
Iteration 14 Energy -340.92198382
C       -1.4842631234    1.4613497070   -0.3372904973
N       -0.5137137007    0.9406944187    0.0835177515
C        1.5292378717   -0.2046408290   -0.6516251946
C        0.6688749165    0.2904799412    0.5291977660
C        0.2893574477   -0.8943537221    1.4591863212
N       -0.1298117412   -0.7522453984    2.6248226952
C        0.9248598073   -0.7177618019   -1.9270621660
C        1.4923608602    0.4455624249   -2.0015582709
H        2.4641387084   -0.6374819948   -0.2758571965
H        1.2449550521    1.0066576342    1.1269229285
H        0.3844569283   -1.8985926951    1.0158994643
H        0.3872480072   -1.5257144721   -2.4002832155
H        1.7743701069    1.3148043401   -2.5760460323
13   
Iteration 13 Energy -340.92192716
C       -1.4828824858    1.4636145382   -0.3370248227
N       -0.5134834095    0.9414790534    0.0843086071
C        1.5280020759   -0.2056548903   -0.6522125885
C        0.6684655461    0.2896416378    0.5288462286
C        0.2888213211   -0.8940453409    1.4590838939
N       -0.1402359025   -0.7530120139    2.6213559876
C        0.9230116041   -0.7169037695   -1.9278127599
C        1.4924196284    0.4455160360   -2.0016966538
H        2.4621680202   -0.6400234833   -0.2767637598
H        1.2449312432    1.0060295222    1.1256009756
H        0.4009991784   -1.8987380953    1.0229164361
H        0.3841099058   -1.5238699445   -2.4011558465
H        1.7757444154    1.3147243028   -2.5756213441
13   
Iteration 12 Energy -340.92188729
C       -1.4822148639    1.4649476959   -0.3368718842
N       -0.5133738977    0.9420273292    0.0847204452
C        1.5272802280   -0.2062416682   -0.6525809968
C        0.6682363869    0.2895480897    0.5287085144
C        0.2895487393   -0.8941217255    1.4596586329
N       -0.1474227989   -0.7532798304    2.6189830456
C        0.9218610105   -0.7164501207   -1.9283540652
C        1.4923634775    0.4454606738   -2.0018437988
H        2.4610794365   -0.6415746392   -0.2772105494
H        1.2453371225    1.0059632902    1.1249559790
H        0.4108126199   -1.8994145590    1.0269231165
H        0.3820935621   -1.5227516264   -2.4018504818
H        1.7764701182    1.3146446434   -2.5754136036
13   
Iteration 11 Energy -340.92185975
C       -1.4819478751    1.4657378257   -0.3367900159
N       -0.5133794364    0.9423630792    0.0849514227
C        1.5268006002   -0.2065460918   -0.6527917424
C        0.6682103787    0.2896698665    0.5287551556
C        0.2906652026   -0.8943760489    1.4603598869
N       -0.1523874767   -0.7532225938    2.6172998522
C        0.9211222588   -0.7162330994   -1.9287262572
C        1.4922615460    0.4453916133   -2.0019089625
H        2.4603757552   -0.6425249825   -0.2774637338
H        1.2458986533    1.0060007893    1.1246734638
H        0.4167580928   -1.8999773345    1.0292025732
H        0.3808432955   -1.5220681770   -2.4024533210
H        1.7768501461    1.3145427065   -2.5752839679
13   
Iteration 10 Energy -340.92183971
C       -1.4815984222    1.4664889359   -0.3367628216
N       -0.5133764773    0.9426339234    0.0851590726
C        1.5263576228   -0.2068414398   -0.6530048835
C        0.6680238904    0.2895094910    0.5286383624
C        0.2906694412   -0.8942405948    1.4605170706
N       -0.1562111951   -0.7534170185    2.6160271978
C        0.9204862697   -0.7159619189   -1.9289846724
C        1.4922476319    0.4453794342   -2.0019578584
H        2.4596919999   -0.6433819090   -0.2777012083
H        1.2462736157    1.0055569132    1.1243888568
H        0.4224989795   -1.9000167618    1.0314672976
H        0.3797615966   -1.5214501718   -2.4027843103
H        1.7772461879    1.3144986698   -2.5751777497
13   
Iteration 9 Energy -340.92182554
C       -1.4813580528    1.4670432545   -0.3367698904
N       -0.5133985888    0.9428251056    0.0852974739
C        1.5260179273   -0.2070384215   -0.6531628469
C        0.6678614265    0.2893648536    0.5285379145
C        0.2905303393   -0.8940662469    1.4605805851
N       -0.1589428470   -0.7535608327    2.6151273915
C        0.9200240636   -0.7157582835   -1.9291537693
C        1.4922418935    0.4453773880   -2.0019834926
H        2.4591750938   -0.6440027902   -0.2778599409
H        1.2466223060    1.0050997242    1.1242245904
H        0.4267873381   -1.8999837779    1.0330948601
H        0.3789842648   -1.5210051187   -2.4029991292
H        1.7775259766    1.3144626982   -2.5751093926
13   
Iteration 8 Energy -340.92181536
C       -1.4812142363    1.4674383296   -0.3368094305
N       -0.5134582137    0.9429429363    0.0853765427
C        1.5257521550   -0.2071560902   -0.6532822195
C        0.6677208467    0.2892268568    0.5284592344
C        0.2902890273   -0.8938868613    1.4605683054
N       -0.1608912449   -0.7536725520    2.6145017486
C        0.9196947976   -0.7156095110   -1.9292550279
C        1.4922427540    0.4453815945   -2.0019829092
H        2.4587393594   -0.6444403300   -0.2779631392
H        1.2470031220    1.0044992854    1.1241571841
H        0.4300349558   -1.8997130053    1.0342620837
H        0.3784455881   -1.5206858056   -2.4031358579
H        1.7777122299    1.3144327055   -2.5750721610
13   
Iteration 7 Energy -340.92180800
C       -1.4811684534    1.4676950979   -0.3368776306
N       -0.5135502428    0.9430003035    0.0854036314
C        1.5255527303   -0.2072039283   -0.6533666343
C        0.6675986083    0.2891373376    0.5284080368
C        0.2900569367   -0.8937323449    1.4605443957
N       -0.1622458573   -0.7537282965    2.6140817357
C        0.9194732459   -0.7155152752   -1.9293050860
C        1.4922395319    0.4453894258   -2.0019637925
H        2.4583787065   -0.6447188503   -0.2780132398
H        1.2474403865    1.0037780169    1.1241819090
H        0.4323786209   -1.8992769237    1.0350164006
H        0.3781034623   -1.5204754886   -2.4032200497
H        1.7778134651    1.3144084786   -2.5750653229
13   
Iteration 6 Energy -340.92180017
C       -1.4813470901    1.4679576274   -0.3371449684
N       -0.5138269066    0.9430542314    0.0853026607
C        1.5252689568   -0.2070786306   -0.6534326969
C        0.6673042888    0.2891460594    0.5283282708
C        0.2894600332   -0.8931966403    1.4605485694
N       -0.1635043214   -0.7535311754    2.6138192369
C        0.9192628305   -0.7154444995   -1.9292334598
C        1.4921966246    0.4454246428   -2.0018995497
H        2.4580265890   -0.6449061056   -0.2778742699
H        1.2486498044    1.0024937876    1.1246293821
H        0.4349774338   -1.8991085933    1.0350976758
H        0.3778359814   -1.5203765336   -2.4031716599
H        1.7777669168    1.3143233824   -2.5751448373
13   
Iteration 5 Energy -340.92160467
C       -1.4775471035    1.4748480433   -0.3357394178
N       -0.5130671406    0.9457128876    0.0881511984
C        1.5213382067   -0.2106117037   -0.6552770758
C        0.6672492122    0.2885776156    0.5282622684
C        0.2971018432   -0.8954751240    1.4644322517
N       -0.2024481680   -0.7551011046    2.5981452546
C        0.9128698900   -0.7131917146   -1.9326699437
C        1.4916877704    0.4448627765   -2.0024600413
H        2.4521013326   -0.6535901147   -0.2808534085
H        1.2488659474    1.0050831839    1.1204657769
H        0.4848037421   -1.9020304095    1.0589843046
H        0.3670423042   -1.5141144172   -2.4083278065
H        1.7820733043    1.3137876342   -2.5732890073
13   
Iteration 4 Energy -340.92144185
C       -1.4743765610    1.4824968390   -0.3355971602
N       -0.5132967620    0.9486096450    0.0901526230
C        1.5161641512   -0.2141285050   -0.6575819173
C        0.6651455944    0.2870513597    0.5272482472
C        0.2982016538   -0.8946150167    1.4668411746
N       -0.2432504158   -0.7594459969    2.5818045206
C        0.9061445489   -0.7102960977   -1.9358889659
C        1.4915297933    0.4447320813   -2.0027667300
H        2.4442387343   -0.6632924762   -0.2833438446
H        1.2544085525    1.0000739929    1.1167600189
H        0.5452292160   -1.8987283613    1.0866813824
H        0.3556856948   -1.5072051851   -2.4128970856
H        1.7862469403    1.3135052737   -2.5715879094
13   
Iteration 3 Energy -340.92132292
C       -1.4710934673    1.4885473498   -0.3342531598
N       -0.5130851837    0.9501757610    0.0927211279
C        1.5121048381   -0.2178670666   -0.6598438015
C        0.6647392806    0.2857149188    0.5268686828
C        0.3040125791   -0.8947419702    1.4709590505
N       -0.2792959806   -0.7638614913    2.5651016822
C        0.9000149216   -0.7079581785   -1.9397383011
C        1.4911710985    0.4443159733   -2.0032858614
H        2.4380633264   -0.6723139776   -0.2866297811
H        1.2557059833    1.0000276650    1.1134150653
H        0.5933078642   -1.8954952495    1.1129875804
H        0.3456671658   -1.5008684245   -2.4188827125
H        1.7907587150    1.3130822433   -2.5695952182
13   
Iteration 2 Energy -340.92124660
C       -1.4686053405    1.4949880051   -0.3341317681
N       -0.5130977912    0.9535835413    0.0946661353
C        1.5069247130   -0.2217551304   -0.6621193831
C        0.6623952734    0.2838625732    0.5256689475
C        0.3051579010   -0.8944425943    1.4730745195
N       -0.3137341889   -0.7699277809    2.5482700181
C        0.8942304865   -0.7053661246   -1.9433830142
C        1.4910759183    0.4442425228   -2.0034494955
H        2.4303240639   -0.6817017575   -0.2889358901
H        1.2605336609    0.9950184803    1.1093500304
H        0.6460629377   -1.8885886836    1.1423559768
H        0.3360835269   -1.4944446729   -2.4243871309
H        1.7947199798    1.3132891743   -2.5671545922
13   
Iteration 1 Energy -340.92120803
C       -1.4661086458    1.4982723363   -0.3324306228
N       -0.5124931108    0.9535970384    0.0963736050
C        1.5043343460   -0.2248546294   -0.6640942943
C        0.6628141374    0.2825077465    0.5253806310
C        0.3091366914   -0.8937234532    1.4763132115
N       -0.3433631957   -0.7753482003    2.5321920953
C        0.8889860522   -0.7030466579   -1.9462268604
C        1.4908724888    0.4440520022   -2.0038899844
H        2.4260249741   -0.6893882068   -0.2923093604
H        1.2625581824    0.9944757741    1.1067741983
H        0.6838684021   -1.8822042691    1.1660796389
H        0.3271351150   -1.4886024537   -2.4286609485
H        1.7983057037    1.3130205258   -2.5656769554
13   
Iteration 0 Energy -340.92119791
C       -1.4642843004    1.5025391907   -0.3325208016
N       -0.5131079715    0.9549421637    0.0980233505
C        1.4998250085   -0.2288354235   -0.6662548843
C        0.6609536495    0.2805112220    0.5244056517
C        0.3115391706   -0.8930836227    1.4793863419
N       -0.3691750618   -0.7814504468    2.5181100940
C        0.8841464965   -0.7005158497   -1.9502529564
C        1.4912356807    0.4440851347   -2.0038938242
H        2.4191425761   -0.6984251517   -0.2947507632
H        1.2653252841    0.9913896160    1.1027973813
H        0.7243365720   -1.8736146166    1.1927776735
H        0.3191991319   -1.4822291459   -2.4352743597
H        1.8029349047    1.3134444826   -2.5627285498
13   
Iteration 1 Energy -340.92120968
C       -1.4626151704    1.5065364457   -0.3321891977
N       -0.5137121683    0.9560293329    0.0996918568
C        1.4953038190   -0.2329484913   -0.6685806342
C        0.6591471640    0.2782959324    0.5233263351
C        0.3139380085   -0.8924363112    1.4825389145
N       -0.3944027786   -0.7881300753    2.5034516634
C        0.8793572021   -0.6978844355   -1.9545273176
C        1.4916222839    0.4441975955   -2.0039383668
H        2.4122307828   -0.7076189870   -0.2974239734
H        1.2681519103    0.9881247465    1.0986071695
H        0.7638039252   -1.8635951896    1.2208461902
H        0.3115208319   -1.4757656619   -2.4422937193
H        1.8077253304    1.3139526517   -2.5596845667
13   
Iteration 2 Energy -340.92124716
C       -1.4602124482    1.5094703164   -0.3301809744
N       -0.5129720491    0.9558841365    0.1013693935
C        1.4929037799   -0.2361846583   -0.6705160696
C        0.6596947309    0.2768549334    0.5231285458
C        0.3175403008   -0.8911539173    1.4857357326
N       -0.4214802862   -0.7964281331    2.4857625736
C        0.8743097368   -0.6957339935   -1.9572530959
C        1.4914022654    0.4438412539   -2.0043528442
H        2.4082092929   -0.7151992146   -0.3009627569
H        1.2703058089    0.9873757728    1.0962682841
H        0.7982206157   -1.8532521505    1.2455299753
H        0.3030101244   -1.4701703130   -2.4464400169
H        1.8111392686    1.3134535200   -2.5582643934
13   
Iteration 3 Energy -340.92131814
C       -1.4579202703    1.5140028389   -0.3288315340
N       -0.5123547965    0.9580769328    0.1033900265
C        1.4882606828   -0.2407256357   -0.6733476888
C        0.6580532131    0.2738868958    0.5217147041
C        0.3185138884   -0.8910113111    1.4877268358
N       -0.4518811341   -0.8061752603    2.4647429291
C        0.8691478004   -0.6929979535   -1.9616224056
C        1.4911884495    0.4441156242   -2.0045841142
H        2.4012793072   -0.7248517083   -0.3045235988
H        1.2759369587    0.9811375435    1.0917022055
H        0.8431156712   -1.8378091629    1.2817802178
H        0.2944407178   -1.4634354226   -2.4530764601
H        1.8142906528    1.3145441721   -2.5552467637
13   
Iteration 4 Energy -340.92142201
C       -1.4549749527    1.5177609509   -0.3262816282
N       -0.5114507482    0.9582772495    0.1058252860
C        1.4849143676   -0.2453544062   -0.6759146811
C        0.6585025734    0.2716873098    0.5213868656
C        0.3230839872   -0.8884587087    1.4924940016
N       -0.4812918872   -0.8185495998    2.4431889289
C        0.8634886936   -0.6908809120   -1.9657581495
C        1.4907356581    0.4435121502   -2.0049971366
H        2.3960087703   -0.7344225476   -0.3090269799
H        1.2778587281    0.9799684971    1.0890386026
H        0.8813004172   -1.8216600246    1.3125646743
H        0.2855535833   -1.4571925113   -2.4598669353
H        1.8183419502    1.3140701054   -2.5528284948
13   
Iteration 5 Energy -340.92155118
C       -1.4528265803    1.5219176747   -0.3244962681
N       -0.5110011680    0.9596915391    0.1076446628
C        1.4800626103   -0.2501070191   -0.6789662424
C        0.6567065055    0.2685572324    0.5199481865
C        0.3235504981   -0.8897036129    1.4933942060
N       -0.5120730336   -0.8311632240    2.4175106739
C        0.8578733555   -0.6873274413   -1.9701397316
C        1.4907533691    0.4441155001   -2.0051977633
H        2.3885832933   -0.7449531440   -0.3129682798
H        1.2859050588    0.9725229857    1.0827332290
H        0.9269694468   -1.8010992567    1.3561459907
H        0.2757831535   -1.4491928466   -2.4661739753
H        1.8217846318    1.3154991655   -2.5496103347
13   
Iteration 6 Energy -340.92163639
C       -1.4513112649    1.5242768477   -0.3232803226
N       -0.5106570180    0.9601045710    0.1088208362
C        1.4772640193   -0.2531221231   -0.6808662027
C        0.6559747145    0.2667184856    0.5192236700
C        0.3242580521   -0.8897998606    1.4945164583
N       -0.5305886169   -0.8406600993    2.4014635353
C        0.8543022703   -0.6851640088   -1.9728615526
C        1.4907529753    0.4443761004   -2.0053580786
H        2.3841872974   -0.7516315135   -0.3156582195
H        1.2906611281    0.9685360359    1.0789167171
H        0.9534480588   -1.7868078207    1.3828365800
H        0.2696890325   -1.4442168539   -2.4702050451
H        1.8240904925    1.3161477921   -2.5477240222
13   
Iteration 7 Energy -340.92164527
C       -1.4510761521    1.5244255067   -0.3231975482
N       -0.5103758459    0.9602316422    0.1089268926
C        1.4773618503   -0.2532670840   -0.6809021925
C        0.6563270013    0.2665582763    0.5191318437
C        0.3247490663   -0.8892234858    1.4949213987
N       -0.5306712114   -0.8405378916    2.4014235509
C        0.8541932122   -0.6853543825   -1.9728804232
C        1.4907624767    0.4441592123   -2.0054391578
H        2.3841422830   -0.7516934216   -0.3158044920
H        1.2890528605    0.9691320506    1.0800234784
H        0.9538077429   -1.7872565286    1.3817867105
H        0.2695249721   -1.4443009436   -2.4703055386
H        1.8242728851    1.3158846024   -2.5478601687
13   
Iteration 8 Energy -340.92165242
C       -1.4508799800    1.5244689510   -0.3230404208
N       -0.5101633508    0.9602609876    0.1090600434
C        1.4774428794   -0.2534158957   -0.6809633268
C        0.6566138060    0.2663754835    0.5190786978
C        0.3253025469   -0.8888039288    1.4953254964
N       -0.5309278183   -0.8406944642    2.4011568507
C        0.8540660132   -0.6854801490   -1.9729586764
C        1.4907353416    0.4439906138   -2.0055096685
H        2.3842543272   -0.7518973114   -0.3159906191
H        1.2879329493    0.9695477634    1.0808399448
H        0.9539429314   -1.7869360645    1.3812206486
H        0.2693427648   -1.4443243115   -2.4704931528
H        1.8244087303    1.3156658786   -2.5479014636
13   
Iteration 9 Energy -340.92166071
C       -1.4506846705    1.5244822047   -0.3228177359
N       -0.5099725469    0.9602441834    0.1092347124
C        1.4775378327   -0.2535967410   -0.6810234039
C        0.6568939269    0.2662108699    0.5190876135
C        0.3260000648   -0.8882465322    1.4959010317
N       -0.5315013149   -0.8410565861    2.4006235845
C        0.8538770677   -0.6855923164   -1.9730821663
C        1.4906664365    0.4438047153   -2.0055680323
H        2.3843942612   -0.7521883777   -0.3162648689
H        1.2869655938    0.9699907213    1.0815246313
H        0.9542048300   -1.7864181856    1.3808757152
H        0.2691068484   -1.4443033358   -2.4707805702
H        1.8245828111    1.3154269332   -2.5478861574
13   
Iteration 10 Energy -340.92167082
C       -1.4505208852    1.5245039662   -0.3225401700
N       -0.5098481844    0.9601604171    0.1094465664
C        1.4775771340   -0.2538364050   -0.6810956160
C        0.6571149810    0.2661187277    0.5191856064
C        0.3266987434   -0.8876078816    1.4965945649
N       -0.5326883464   -0.8417605104    2.3996149366
C        0.8535881602   -0.6856329381   -1.9732733813
C        1.4905617397    0.4436455013   -2.0055876997
H        2.3844235115   -0.7526070800   -0.3166110083
H        1.2865349928    0.9703996414    1.0817516864
H        0.9550553133   -1.7856995836    1.3813181027
H        0.2687618642   -1.4441505718   -2.4712059686
H        1.8248121168    1.3152242695   -2.5477732658
13   
Iteration 11 Energy -340.92168425
C       -1.4503467089    1.5245818686   -0.3221896589
N       -0.5097681501    0.9600101116    0.1097034760
C        1.4774757937   -0.2542016750   -0.6812389770
C        0.6573095758    0.2660577764    0.5193214482
C        0.3273056022   -0.8870385086    1.4972893705
N       -0.5346981276   -0.8429594070    2.3979257320
C        0.8531586611   -0.6855571243   -1.9735735764
C        1.4904509335    0.4435375961   -2.0055800220
H        2.3842503327   -0.7532844927   -0.3170285838
H        1.2866957598    0.9707118328    1.0814961930
H        0.9569202499   -1.7844145136    1.3830685775
H        0.2682031582   -1.4437771432   -2.4718145313
H        1.8251140606    1.3150912317   -2.5475550942
13   
Iteration 12 Energy -340.92170298
C       -1.4500963494    1.5247661765   -0.3217469059
N       -0.5096771517    0.9598384037    0.1100150991
C        1.4771955843   -0.2547451063   -0.6814935521
C        0.6575049734    0.2659556851    0.5194286579
C        0.3278466260   -0.8865355043    1.4979769317
N       -0.5377240284   -0.8447508621    2.3953293116
C        0.8525371536   -0.6853447945   -1.9740216253
C        1.4903517593    0.4434598117   -2.0055763462
H        2.3838045674   -0.7543465096   -0.3175855430
H        1.2872469808    0.9708581511    1.0809468123
H        0.9602336519   -1.7822935612    1.3864247155
H        0.2673124939   -1.4431138023   -2.4726351596
H        1.8255348800    1.3150094649   -2.5472380425
13   
Iteration 13 Energy -340.92172958
C       -1.4497383680    1.5250671454   -0.3211559044
N       -0.5095418146    0.9596460508    0.1104204632
C        1.4767379033   -0.2555176476   -0.6818811398
C        0.6577195855    0.2657660630    0.5195127825
C        0.3284604918   -0.8859788471    1.4987876082
N       -0.5420541736   -0.8473193217    2.3915286026
C        0.8516507399   -0.6849873065   -1.9746639812
C        1.4902472949    0.4433845126   -2.0055865880
H        2.3830775322   -0.7559053017   -0.3183639472
H        1.2881213168    0.9708471427    1.0801452235
H        0.9652758702   -1.7790879668    1.3916311241
H        0.2659831241   -1.4421017609   -2.4737536278
H        1.8261316384    1.3149447905   -2.5467962619
13   
Iteration 14 Energy -340.92176740
C       -1.4491005313    1.5258550420   -0.3205678612
N       -0.5091016532    0.9599257763    0.1108381273
C        1.4759001227   -0.2566082477   -0.6825570113
C        0.6577587311    0.2650118759    0.5191504374
C        0.3290148340   -0.8856803821    1.4992965641