13   
Iteration 12 Energy -340.92655276
C       -1.5600065747    1.3809457742   -0.4465079805
N       -0.5816518069    0.9214956782    0.0251882899
C        1.5316755774   -0.1759503155   -0.6047220566
C        0.6038469556    0.3225621786    0.5304467749
C        0.2353455453   -0.8564649927    1.4468376057
N        0.7703819500   -1.0496998533    2.5581179021
C        1.0090136329   -0.7339780549   -1.8949974765
C        1.5330211428    0.4499470696   -1.9672844552
H        2.4592792224   -0.5646118191   -0.1718113398
H        1.1416987984    1.0633994758    1.1317452613
H       -0.5099600562   -1.5577465866    1.0411914315
H        0.5357203876   -1.5759343357   -2.3775383762
H        1.8122304512    1.3175723276   -2.5456600750
13   
Iteration 11 Energy -340.92655188
C       -1.5611298681    1.3773931524   -0.4458483844
N       -0.5822622447    0.9190454231    0.0258435121
C        1.5313618859   -0.1767940864   -0.6053342668
C        0.6044999480    0.3213545130    0.5301557077
C        0.2366770506   -0.8572716702    1.4478305009
N        0.7712377544   -1.0489360271    2.5595057868
C        1.0084284165   -0.7325768130   -1.8966562875
C        1.5338462348    0.4507884958   -1.9671319481
H        2.4583470890   -0.5674941357   -0.1729135253
H        1.1417149803    1.0630916312    1.1310150304
H       -0.5089489409   -1.5586049823    1.0427878902
H        0.5343741593   -1.5733956146   -2.3804093384
H        1.8142218777    1.3187443493   -2.5444648029
13   
Iteration 10 Energy -340.92654949
C       -1.5615971978    1.3715579594   -0.4485102726
N       -0.5838254358    0.9147478059    0.0269387606
C        1.5306039853   -0.1779002907   -0.6062931881
C        0.6049563741    0.3195409591    0.5300472102
C        0.2391383097   -0.8583030259    1.4499979286
N        0.7722025104   -1.0457463801    2.5630237673
C        1.0064634092   -0.7296205932   -1.8989251148
C        1.5354532222    0.4522605523   -1.9668049587
H        2.4563181338   -0.5721736797   -0.1743158746
H        1.1412668048    1.0631312637    1.1295590802
H       -0.5049545075   -1.5617871118    1.0457092139
H        0.5298529586   -1.5679635927   -2.3844258090
H        1.8184659524    1.3204296643   -2.5425416945
13   
Iteration 9 Energy -340.92654268
C       -1.5599639390    1.3631001708   -0.4584446465
N       -0.5867042700    0.9082344063    0.0281009266
C        1.5286325029   -0.1808225626   -0.6073662214
C        0.6044059407    0.3172535275    0.5305090649
C        0.2436611071   -0.8591466356    1.4539455425
N        0.7760532684   -1.0404028535    2.5684023675
C        1.0026336157   -0.7249336681   -1.9021730677
C        1.5370263209    0.4548582249   -1.9650133467
H        2.4521438085   -0.5807663435   -0.1758144537
H        1.1402418971    1.0639127059    1.1267079244
H       -0.4969082824   -1.5676172035    1.0517748551
H        0.5214080722   -1.5586329497   -2.3910933359
H        1.8240420646    1.3240749501   -2.5371666637
13   
Iteration 8 Energy -340.92653377
C       -1.5585502977    1.3589293837   -0.4677108606
N       -0.5897352155    0.9046826566    0.0283073557
C        1.5263096875   -0.1832128617   -0.6076769635
C        0.6020908621    0.3160202746    0.5308261785
C        0.2466410432   -0.8595346610    1.4571523488
N        0.7823754449   -1.0367991269    2.5708560612
C        0.9996133176   -0.7216191965   -1.9041553338
C        1.5382983071    0.4565918146   -1.9631224768
H        2.4481489891   -0.5869014030   -0.1759195544
H        1.1386511010    1.0643144218    1.1240528348
H       -0.4898228401   -1.5734250467    1.0573685000
H        0.5149695966   -1.5517425934   -2.3958059826
H        1.8288145677    1.3265934928   -2.5322982408
13   
Iteration 7 Energy -340.92652523
C       -1.5588942967    1.3567423105   -0.4749220495
N       -0.5929001335    0.9033954999    0.0275087867
C        1.5244310417   -0.1851801326   -0.6067131861
C        0.5990404779    0.3163892995    0.5308481597
C        0.2474932525   -0.8579816507    1.4587219062
N        0.7997795715   -1.0435207736    2.5631285251
C        0.9989931902   -0.7205860118   -1.9045928704
C        1.5390423800    0.4573264067   -1.9606844686
H        2.4452312565   -0.5903346093   -0.1740242564
H        1.1366008372    1.0648725661    1.1224781310
H       -0.4969554750   -1.5671817045    1.0663401306
H        0.5135790337   -1.5490052018   -2.3983903046
H        1.8313924516    1.3281679880   -2.5276317710
13   
Iteration 6 Energy -340.92649821
C       -1.5626513808    1.3523406718   -0.4684494475
N       -0.5962328558    0.9011168939    0.0351338604
C        1.5207991940   -0.1833781037   -0.6086286938
C        0.5982416059    0.3176024506    0.5345869374
C        0.2492818266   -0.8588317585    1.4569357586
N        0.8060040773   -1.0428700705    2.5594123649
C        1.0000760761   -0.7198433389   -1.9086380039
C        1.5432740529    0.4559590274   -1.9650340743
H        2.4394837488   -0.5894516824   -0.1735309502
H        1.1345603644    1.0674148894    1.1261036616
H       -0.5028683796   -1.5642785690    1.0701326002
H        0.5155892786   -1.5483210878   -2.4032860336
H        1.8412099703    1.3242488068   -2.5329103273
13   
Iteration 5 Energy -340.92641516
C       -1.5462623580    1.3441904827   -0.4842808438
N       -0.5827504378    0.8961140049    0.0274395887
C        1.5340782055   -0.1846235569   -0.6064734555
C        0.6101141271    0.3175452737    0.5354261008
C        0.2579114514   -0.8614119183    1.4535963562
N        0.7400992617   -1.0264755561    2.5936416148
C        0.9872854053   -0.7150160343   -1.8977686929
C        1.5366098805    0.4577501300   -1.9617143095
H        2.4563231504   -0.5930951657   -0.1815362299
H        1.1411413748    1.0742986070    1.1246999889
H       -0.4557062921   -1.5911287617    1.0351003773
H        0.4869557817   -1.5386171749   -2.3848476058
H        1.8267638866    1.3268014576   -2.5324251526
13   
Iteration 4 Energy -340.92564970
C       -1.5620900558    1.4082082895   -0.4858209995
N       -0.6138105479    0.9293547292    0.0267878485
C        1.4880219952   -0.1974937748   -0.6030929478
C        0.5627015900    0.3180694258    0.5247857067
C        0.2499232723   -0.8598025631    1.4713410809
N        0.7891218357   -0.9804215714    2.5904167770
C        0.9921267705   -0.7228955757   -1.9153325694
C        1.5396524650    0.4526355690   -1.9515173065
H        2.4012720064   -0.6056060805   -0.1570398580
H        1.1365455224    1.0469074974    1.1067086990
H       -0.3584561147   -1.6692710699    1.0480310343
H        0.5121554727   -1.5439807471   -2.4261699557
H        1.8530072000    1.3253286776   -2.5043257080
13   
Iteration 3 Energy -340.92472478
C       -1.5686224569    1.4361873061   -0.4708688351
N       -0.6220697129    0.9424426606    0.0306777308
C        1.4741868985   -0.1992171403   -0.6078143377
C        0.5511387059    0.3151687419    0.5186843680
C        0.2528242912   -0.8612408120    1.4782989192
N        0.7313853270   -0.9452200339    2.6278358051
C        0.9896401223   -0.7246670421   -1.9237542614
C        1.5422970505    0.4487444035   -1.9556973811
H        2.3853199490   -0.6089047933   -0.1573392365
H        1.1424092362    1.0280804841    1.0997459762
H       -0.2649080030   -1.7129868789    1.0282449422
H        0.5119973287   -1.5445926645   -2.4384643865
H        1.8657212924    1.3194283886   -2.5059744847
13   
Iteration 2 Energy -340.92344645
C       -1.5201230497    1.4600199094   -0.3973256259
N       -0.5610860601    0.9438067995    0.0547586476
C        1.5054604957   -0.2053411039   -0.6336867263
C        0.6143142977    0.2938139284    0.5205447715
C        0.2647264906   -0.8918356821    1.4576768138
N        0.2260410964   -0.7711144299    2.6981488950
C        0.9541506059   -0.7201545581   -1.9295438487
C        1.5124279128    0.4496800432   -1.9800385285
H        2.4316303229   -0.6284565153   -0.2268499161
H        1.2001641627    1.0030775586    1.1141511107
H        0.1378831019   -1.8708869170    0.9764480743
H        0.4436789481   -1.5324466984   -2.4245867609
H        1.8098895415    1.3232216741   -2.5402230269
13   
Iteration 1 Energy -340.92249973
C       -1.4947422006    1.4627948389   -0.3462028073
N       -0.5245813402    0.9436016830    0.0775618064
C        1.5236777020   -0.2022327737   -0.6478857901
C        0.6572145065    0.2919362353    0.5279138640
C        0.2792123799   -0.8924952126    1.4572031003
N       -0.0348150758   -0.7613264818    2.6568029150
C        0.9368092377   -0.7217932036   -1.9286094601
C        1.4972344322    0.4450931614   -1.9992967936
H        2.4578611192   -0.6290294369   -0.2640130720
H        1.2344864301    1.0069176043    1.1253156316
H        0.3069606097   -1.8903770591    0.9919693259
H        0.4106877170   -1.5345273219   -2.4064448691
H        1.7809442200    1.3146333425   -2.5725029487
13   
Iteration 0 Energy -340.92222505
C       -1.4875635373    1.4544127051   -0.3380337413
N       -0.5139637143    0.9380161796    0.0812484102
C        1.5330198680   -0.2018790652   -0.6497239307
C        0.6701554824    0.2901820612    0.5297696302
C        0.2842160158   -0.8932930795    1.4559161336
N       -0.0899035393   -0.7529226290    2.6370944479
C        0.9312107704   -0.7200211412   -1.9244366924
C        1.4930231780    0.4458727973   -2.0008735151
H        2.4702401045   -0.6296552875   -0.2738929908
H        1.2414156759    1.0086942618    1.1294548181
H        0.3315313641   -1.8947019676    0.9969699577
H        0.3979282895   -1.5313827276   -2.3967631473
H        1.7707611830    1.3154354455   -2.5769050262
13   
Iteration 25 Energy -340.92222447
C       -1.4875645732    1.4544313628   -0.3380385500
N       -0.5139660327    0.9380304031    0.0812487925
C        1.5330082394   -0.2018727957   -0.6497229975
C        0.6701549115    0.2901863501    0.5297703352
C        0.2842136511   -0.8932637383    1.4559300536
N       -0.0899460311   -0.7528981997    2.6370891962
C        0.9312010086   -0.7200184780   -1.9244327502
C        1.4930203435    0.4458715540   -2.0008733547
H        2.4702536352   -0.6296680628   -0.2738843684
H        1.2414349177    1.0087495865    1.1294709185
H        0.3315923019   -1.8948340894    0.9969335807
H        0.3979093745   -1.5313821593   -2.3967602922
H        1.7707593945    1.3154258195   -2.5769062099
13   
Iteration 24 Energy -340.92218006
C       -1.4867750346    1.4555113570   -0.3377768968
N       -0.5138100559    0.9383539042    0.0817353371
C        1.5325201998   -0.2025692199   -0.6501453294
C        0.6697076455    0.2903560041    0.5294983428
C        0.2852809070   -0.8938880032    1.4563475531
N       -0.0972232308   -0.7529670840    2.6348186222
C        0.9300571424   -0.7195726684   -1.9249929868
C        1.4928849887    0.4458726687   -2.0010850823
H        2.4689712022   -0.6310092563   -0.2742751186
H        1.2417921764    1.0075778143    1.1287753259
H        0.3411432285   -1.8940829245    1.0010270059
H        0.3960127370   -1.5303123842   -2.3973482849
H        1.7715092349    1.3154873449   -2.5767541344
13   
Iteration 23 Energy -340.92214563
C       -1.4862626331    1.4566126599   -0.3376818599
N       -0.5137552352    0.9388553065    0.0820711747
C        1.5319395826   -0.2029102922   -0.6504037808
C        0.6695069922    0.2904259118    0.5293875383
C        0.2858850688   -0.8937493871    1.4568460163
N       -0.1028449295   -0.7526347808    2.6332053469
C        0.9291189826   -0.7192262876   -1.9252929518
C        1.4927721706    0.4458226703   -2.0011927169
H        2.4683357749   -0.6321892204   -0.2744112490
H        1.2422703377    1.0079991278    1.1285457305
H        0.3487331243   -1.8960004689    1.0031268259
H        0.3943844582   -1.5295561370   -2.3977307820
H        1.7719874467    1.3153084503   -2.5766449385
13   
Iteration 22 Energy -340.92211995
C       -1.4858749058    1.4572705203   -0.3375816766
N       -0.5137085551    0.9390658412    0.0823169029
C        1.5316119672   -0.2032618300   -0.6506289322
C        0.6692763304    0.2905131078    0.5292641247
C        0.2864475598   -0.8939973824    1.4571273726
N       -0.1070488756   -0.7526569403    2.6318718290
C        0.9284561455   -0.7189767643   -1.9256067395
C        1.4926996834    0.4458162883   -2.0013014836
H        2.4676273639   -0.6329581144   -0.2746512807
H        1.2426224024    1.0073654377    1.1282256633
H        0.3542788325   -1.8957971380    1.0054384979
H        0.3932852810   -1.5289462544   -2.3980890045
H        1.7723979114    1.3153207811   -2.5765609196
13   
Iteration 21 Energy -340.92210182
C       -1.4856049348    1.4577928683   -0.3375151531
N       -0.5136732116    0.9392743616    0.0824962298
C        1.5313416532   -0.2034792677   -0.6507733831
C        0.6691804159    0.2905287096    0.5292077364
C        0.2868302471   -0.8940757520    1.4573654824
N       -0.1100088205   -0.7526161152    2.6309667671
C        0.9279866868   -0.7188011652   -1.9257986910
C        1.4926577689    0.4457946073   -2.0013590567
H        2.4671954065   -0.6335573021   -0.2747885099
H        1.2428229011    1.0073104449    1.1280056828
H        0.3582055378   -1.8961744576    1.0068405087
H        0.3924671621   -1.5285161169   -2.3983283371
H        1.7726703284    1.3152767377   -2.5764949227
13   
Iteration 20 Energy -340.92208902
C       -1.4854328162    1.4582206842   -0.3374807387
N       -0.5136623067    0.9394517993    0.0826226040
C        1.5310942828   -0.2036023711   -0.6508585772
C        0.6692059949    0.2904437551    0.5292268959
C        0.2870331852   -0.8940717750    1.4575260847
N       -0.1121586921   -0.7525771806    2.6303270936
C        0.9276446919   -0.7186794881   -1.9259240369
C        1.4926476860    0.4457595167   -2.0013676572
H        2.4668765854   -0.6340239434   -0.2749297809
H        1.2429477173    1.0074353427    1.1278357085
H        0.3611432165   -1.8966178266    1.0078120100
H        0.3918661264   -1.5281892536   -2.3985318970
H        1.7728654695    1.3152082931   -2.5764333552
13   
Iteration 19 Energy -340.92207986
C       -1.4852948713    1.4584748351   -0.3374440207
N       -0.5136372405    0.9395522383    0.0827133345
C        1.5309695124   -0.2037194146   -0.6509326120
C        0.6691404549    0.2904769384    0.5291870306
C        0.2872567463   -0.8941231452    1.4576611736
N       -0.1136522718   -0.7525620682    2.6298545701
C        0.9274073887   -0.7185899274   -1.9260301069
C        1.4926213396    0.4457536357   -2.0014069854
H        2.4666717387   -0.6343160403   -0.2750022250
H        1.2430507139    1.0073967289    1.1277242443
H        0.3630745203   -1.8968096304    1.0085568894
H        0.3914568812   -1.5279748937   -2.3986555816
H        1.7730062283    1.3151982961   -2.5764013570
13   
Iteration 18 Energy -340.92207339
C       -1.4852014875    1.4586553740   -0.3374235437
N       -0.5136204287    0.9396280576    0.0827739686
C        1.5308830566   -0.2037982046   -0.6509845218
C        0.6690749050    0.2905250557    0.5291486475
C        0.2874194636   -0.8941380232    1.4577721317
N       -0.1147034745   -0.7525311932    2.6295209831
C        0.9272370957   -0.7185257625   -1.9261028043
C        1.4925961602    0.4457532669   -2.0014408575
H        2.4665508066   -0.6345173208   -0.2750387118
H        1.2431499931    1.0073861042    1.1276695521
H        0.3644195554   -1.8970382993    1.0090470617
H        0.3911649211   -1.5278330275   -2.3987342139
H        1.7731005742    1.3151915255   -2.5763833380
13   
Iteration 17 Energy -340.92206887
C       -1.4850852700    1.4587883467   -0.3373789568
N       -0.5135718351    0.9396812727    0.0828410563
C        1.5308384616   -0.2038873714   -0.6510247364
C        0.6690276629    0.2905401292    0.5291049992
C        0.2875224386   -0.8941742977    1.4578150706
N       -0.1154201174   -0.7525596479    2.6292688158
C        0.9271117524   -0.7184664715   -1.9261717999
C        1.4925857104    0.4457570895   -2.0014783570
H        2.4664796504   -0.6346724121   -0.2750952079
H        1.2430881864    1.0074702939    1.1275580493
H        0.3653481951   -1.8972080552    1.0095333312
H        0.3909459631   -1.5277170360   -2.3987925510
H        1.7732003426    1.3152057127   -2.5763553597
13   
Iteration 16 Energy -340.92206558
C       -1.4850289275    1.4588929488   -0.3373688637
N       -0.5135515587    0.9397364612    0.0828744157
C        1.5307963944   -0.2039260868   -0.6510472935
C        0.6689749731    0.2905900660    0.5290712453
C        0.2875988936   -0.8941384247    1.4578842210
N       -0.1159234974   -0.7525168424    2.6291054742
C        0.9270193066   -0.7184288683   -1.9262065170
C        1.4925664978    0.4457612205   -2.0015068222
H        2.4664738092   -0.6347747207   -0.2751005743
H        1.2431262385    1.0075845447    1.1275454680
H        0.3659812668   -1.8975696195    1.0097381287
H        0.3907878764   -1.5276554524   -2.3988166797
H        1.7732498681    1.3152023264   -2.5763478490
13   
Iteration 15 Energy -340.92206292
C       -1.4849955676    1.4589884299   -0.3373751522
N       -0.5135400469    0.9398063610    0.0828904398
C        1.5307551652   -0.2039309373   -0.6510554030
C        0.6689212825    0.2906527297    0.5290382803
C        0.2876235278   -0.8940221170    1.4579551309
N       -0.1162214052   -0.7524217305    2.6290221586
C        0.9269496117   -0.7183992597   -1.9262141224
C        1.4925430355    0.4457669436   -2.0015328719
H        2.4665558695   -0.6348493177   -0.2750649292
H        1.2431828432    1.0078500301    1.1275955996
H        0.3663638732   -1.8982245216    1.0097202752
H        0.3906646284   -1.5276382691   -2.3988085962
H        1.7732683237    1.3151792114   -2.5763464557
13   
Iteration 14 Energy -340.92198382
C       -1.4842631234    1.4613497070   -0.3372904973
N       -0.5137137007    0.9406944187    0.0835177515
C        1.5292378717   -0.2046408290   -0.6516251946
C        0.6688749165    0.2904799412    0.5291977660
C        0.2893574477   -0.8943537221    1.4591863212
N       -0.1298117412   -0.7522453984    2.6248226952
C        0.9248598073   -0.7177618019   -1.9270621660
C        1.4923608602    0.4455624249   -2.0015582709
H        2.4641387084   -0.6374819948   -0.2758571965
H        1.2449550521    1.0066576342    1.1269229285
H        0.3844569283   -1.8985926951    1.0158994643
H        0.3872480072   -1.5257144721   -2.4002832155
H        1.7743701069    1.3148043401   -2.5760460323
13   
Iteration 13 Energy -340.92192716
C       -1.4828824858    1.4636145382   -0.3370248227
N       -0.5134834095    0.9414790534    0.0843086071
C        1.5280020759   -0.2056548903   -0.6522125885
C        0.6684655461    0.2896416378    0.5288462286
C        0.2888213211   -0.8940453409    1.4590838939
N       -0.1402359025   -0.7530120139    2.6213559876
C        0.9230116041   -0.7169037695   -1.9278127599
C        1.4924196284    0.4455160360   -2.0016966538
H        2.4621680202   -0.6400234833   -0.2767637598
H        1.2449312432    1.0060295222    1.1256009756
H        0.4009991784   -1.8987380953    1.0229164361
H        0.3841099058   -1.5238699445   -2.4011558465
H        1.7757444154    1.3147243028   -2.5756213441
13   
Iteration 12 Energy -340.92188729
C       -1.4822148639    1.4649476959   -0.3368718842
N       -0.5133738977    0.9420273292    0.0847204452
C        1.5272802280   -0.2062416682   -0.6525809968
C        0.6682363869    0.2895480897    0.5287085144
C        0.2895487393   -0.8941217255    1.4596586329
N       -0.1474227989   -0.7532798304    2.6189830456
C        0.9218610105   -0.7164501207   -1.9283540652
C        1.4923634775    0.4454606738   -2.0018437988
H        2.4610794365   -0.6415746392   -0.2772105494
H        1.2453371225    1.0059632902    1.1249559790
H        0.4108126199   -1.8994145590    1.0269231165
H        0.3820935621   -1.5227516264   -2.4018504818
H        1.7764701182    1.3146446434   -2.5754136036
13   
Iteration 11 Energy -340.92185975
C       -1.4819478751    1.4657378257   -0.3367900159
N       -0.5133794364    0.9423630792    0.0849514227
C        1.5268006002   -0.2065460918   -0.6527917424
C        0.6682103787    0.2896698665    0.5287551556
C        0.2906652026   -0.8943760489    1.4603598869
N       -0.1523874767   -0.7532225938    2.6172998522
C        0.9211222588   -0.7162330994   -1.9287262572
C        1.4922615460    0.4453916133   -2.0019089625
H        2.4603757552   -0.6425249825   -0.2774637338
H        1.2458986533    1.0060007893    1.1246734638
H        0.4167580928   -1.8999773345    1.0292025732
H        0.3808432955   -1.5220681770   -2.4024533210
H        1.7768501461    1.3145427065   -2.5752839679
13   
Iteration 10 Energy -340.92183971
C       -1.4815984222    1.4664889359   -0.3367628216
N       -0.5133764773    0.9426339234    0.0851590726
C        1.5263576228   -0.2068414398   -0.6530048835
C        0.6680238904    0.2895094910    0.5286383624
C        0.2906694412   -0.8942405948    1.4605170706
N       -0.1562111951   -0.7534170185    2.6160271978
C        0.9204862697   -0.7159619189   -1.9289846724
C        1.4922476319    0.4453794342   -2.0019578584
H        2.4596919999   -0.6433819090   -0.2777012083
H        1.2462736157    1.0055569132    1.1243888568
H        0.4224989795   -1.9000167618    1.0314672976
H        0.3797615966   -1.5214501718   -2.4027843103
H        1.7772461879    1.3144986698   -2.5751777497
13   
Iteration 9 Energy -340.92182554
C       -1.4813580528    1.4670432545   -0.3367698904
N       -0.5133985888    0.9428251056    0.0852974739
C        1.5260179273   -0.2070384215   -0.6531628469
C        0.6678614265    0.2893648536    0.5285379145
C        0.2905303393   -0.8940662469    1.4605805851
N       -0.1589428470   -0.7535608327    2.6151273915
C        0.9200240636   -0.7157582835   -1.9291537693
C        1.4922418935    0.4453773880   -2.0019834926
H        2.4591750938   -0.6440027902   -0.2778599409
H        1.2466223060    1.0050997242    1.1242245904
H        0.4267873381   -1.8999837779    1.0330948601
H        0.3789842648   -1.5210051187   -2.4029991292
H        1.7775259766    1.3144626982   -2.5751093926
13   
Iteration 8 Energy -340.92181536
C       -1.4812142363    1.4674383296   -0.3368094305
N       -0.5134582137    0.9429429363    0.0853765427
C        1.5257521550   -0.2071560902   -0.6532822195
C        0.6677208467    0.2892268568    0.5284592344
C        0.2902890273   -0.8938868613    1.4605683054
N       -0.1608912449   -0.7536725520    2.6145017486
C        0.9196947976   -0.7156095110   -1.9292550279
C        1.4922427540    0.4453815945   -2.0019829092
H        2.4587393594   -0.6444403300   -0.2779631392
H        1.2470031220    1.0044992854    1.1241571841
H        0.4300349558   -1.8997130053    1.0342620837
H        0.3784455881   -1.5206858056   -2.4031358579
H        1.7777122299    1.3144327055   -2.5750721610
13   
Iteration 7 Energy -340.92180800
C       -1.4811684534    1.4676950979   -0.3368776306
N       -0.5135502428    0.9430003035    0.0854036314
C        1.5255527303   -0.2072039283   -0.6533666343
C        0.6675986083    0.2891373376    0.5284080368
C        0.2900569367   -0.8937323449    1.4605443957
N       -0.1622458573   -0.7537282965    2.6140817357
C        0.9194732459   -0.7155152752   -1.9293050860
C        1.4922395319    0.4453894258   -2.0019637925
H        2.4583787065   -0.6447188503   -0.2780132398
H        1.2474403865    1.0037780169    1.1241819090
H        0.4323786209   -1.8992769237    1.0350164006
H        0.3781034623   -1.5204754886   -2.4032200497
H        1.7778134651    1.3144084786   -2.5750653229
13   
Iteration 6 Energy -340.92180017
C       -1.4813470901    1.4679576274   -0.3371449684
N       -0.5138269066    0.9430542314    0.0853026607
C        1.5252689568   -0.2070786306   -0.6534326969
C        0.6673042888    0.2891460594    0.5283282708
C        0.2894600332   -0.8931966403    1.4605485694
N       -0.1635043214   -0.7535311754    2.6138192369
C        0.9192628305   -0.7154444995   -1.9292334598
C        1.4921966246    0.4454246428   -2.0018995497
H        2.4580265890   -0.6449061056   -0.2778742699
H        1.2486498044    1.0024937876    1.1246293821
H        0.4349774338   -1.8991085933    1.0350976758
H        0.3778359814   -1.5203765336   -2.4031716599
H        1.7777669168    1.3143233824   -2.5751448373
13   
Iteration 5 Energy -340.92160467
C       -1.4775471035    1.4748480433   -0.3357394178
N       -0.5130671406    0.9457128876    0.0881511984
C        1.5213382067   -0.2106117037   -0.6552770758
C        0.6672492122    0.2885776156    0.5282622684
C        0.2971018432   -0.8954751240    1.4644322517
N       -0.2024481680   -0.7551011046    2.5981452546
C        0.9128698900   -0.7131917146   -1.9326699437
C        1.4916877704    0.4448627765   -2.0024600413
H        2.4521013326   -0.6535901147   -0.2808534085
H        1.2488659474    1.0050831839    1.1204657769
H        0.4848037421   -1.9020304095    1.0589843046
H        0.3670423042   -1.5141144172   -2.4083278065
H        1.7820733043    1.3137876342   -2.5732890073
13   
Iteration 4 Energy -340.92144185
C       -1.4743765610    1.4824968390   -0.3355971602
N       -0.5132967620    0.9486096450    0.0901526230
C        1.5161641512   -0.2141285050   -0.6575819173
C        0.6651455944    0.2870513597    0.5272482472
C        0.2982016538   -0.8946150167    1.4668411746
N       -0.2432504158   -0.7594459969    2.5818045206
C        0.9061445489   -0.7102960977   -1.9358889659
C        1.4915297933    0.4447320813   -2.0027667300
H        2.4442387343   -0.6632924762   -0.2833438446
H        1.2544085525    1.0000739929    1.1167600189
H        0.5452292160   -1.8987283613    1.0866813824
H        0.3556856948   -1.5072051851   -2.4128970856
H        1.7862469403    1.3135052737   -2.5715879094
13   
Iteration 3 Energy -340.92132292
C       -1.4710934673    1.4885473498   -0.3342531598
N       -0.5130851837    0.9501757610    0.0927211279
C        1.5121048381   -0.2178670666   -0.6598438015
C        0.6647392806    0.2857149188    0.5268686828
C        0.3040125791   -0.8947419702    1.4709590505
N       -0.2792959806   -0.7638614913    2.5651016822
C        0.9000149216   -0.7079581785   -1.9397383011
C        1.4911710985    0.4443159733   -2.0032858614
H        2.4380633264   -0.6723139776   -0.2866297811
H        1.2557059833    1.0000276650    1.1134150653
H        0.5933078642   -1.8954952495    1.1129875804
H        0.3456671658   -1.5008684245   -2.4188827125
H        1.7907587150    1.3130822433   -2.5695952182
13   
Iteration 2 Energy -340.92124660
C       -1.4686053405    1.4949880051   -0.3341317681
N       -0.5130977912    0.9535835413    0.0946661353
C        1.5069247130   -0.2217551304   -0.6621193831
C        0.6623952734    0.2838625732    0.5256689475
C        0.3051579010   -0.8944425943    1.4730745195
N       -0.3137341889   -0.7699277809    2.5482700181
C        0.8942304865   -0.7053661246   -1.9433830142
C        1.4910759183    0.4442425228   -2.0034494955
H        2.4303240639   -0.6817017575   -0.2889358901
H        1.2605336609    0.9950184803    1.1093500304
H        0.6460629377   -1.8885886836    1.1423559768
H        0.3360835269   -1.4944446729   -2.4243871309
H        1.7947199798    1.3132891743   -2.5671545922
13   
Iteration 1 Energy -340.92120803
C       -1.4661086458    1.4982723363   -0.3324306228
N       -0.5124931108    0.9535970384    0.0963736050
C        1.5043343460   -0.2248546294   -0.6640942943
C        0.6628141374    0.2825077465    0.5253806310
C        0.3091366914   -0.8937234532    1.4763132115
N       -0.3433631957   -0.7753482003    2.5321920953
C        0.8889860522   -0.7030466579   -1.9462268604
C        1.4908724888    0.4440520022   -2.0038899844
H        2.4260249741   -0.6893882068   -0.2923093604
H        1.2625581824    0.9944757741    1.1067741983
H        0.6838684021   -1.8822042691    1.1660796389
H        0.3271351150   -1.4886024537   -2.4286609485
H        1.7983057037    1.3130205258   -2.5656769554
13   
Iteration 0 Energy -340.92119791
C       -1.4642843004    1.5025391907   -0.3325208016
N       -0.5131079715    0.9549421637    0.0980233505
C        1.4998250085   -0.2288354235   -0.6662548843
C        0.6609536495    0.2805112220    0.5244056517
C        0.3115391706   -0.8930836227    1.4793863419
N       -0.3691750618   -0.7814504468    2.5181100940
C        0.8841464965   -0.7005158497   -1.9502529564
C        1.4912356807    0.4440851347   -2.0038938242
H        2.4191425761   -0.6984251517   -0.2947507632
H        1.2653252841    0.9913896160    1.1027973813
H        0.7243365720   -1.8736146166    1.1927776735
H        0.3191991319   -1.4822291459   -2.4352743597
H        1.8029349047    1.3134444826   -2.5627285498
13   
Iteration 1 Energy -340.92120968
C       -1.4626151704    1.5065364457   -0.3321891977
N       -0.5137121683    0.9560293329    0.0996918568
C        1.4953038190   -0.2329484913   -0.6685806342
C        0.6591471640    0.2782959324    0.5233263351
C        0.3139380085   -0.8924363112    1.4825389145
N       -0.3944027786   -0.7881300753    2.5034516634
C        0.8793572021   -0.6978844355   -1.9545273176
C        1.4916222839    0.4441975955   -2.0039383668
H        2.4122307828   -0.7076189870   -0.2974239734
H        1.2681519103    0.9881247465    1.0986071695
H        0.7638039252   -1.8635951896    1.2208461902
H        0.3115208319   -1.4757656619   -2.4422937193
H        1.8077253304    1.3139526517   -2.5596845667
13   
Iteration 2 Energy -340.92124716
C       -1.4602124482    1.5094703164   -0.3301809744
N       -0.5129720491    0.9558841365    0.1013693935
C        1.4929037799   -0.2361846583   -0.6705160696
C        0.6596947309    0.2768549334    0.5231285458
C        0.3175403008   -0.8911539173    1.4857357326