13   
IRC reactant Energy -340.92222505
C       -1.4875635373    1.4544127051   -0.3380337413
N       -0.5139637143    0.9380161796    0.0812484102
C        1.5330198680   -0.2018790652   -0.6497239307
C        0.6701554824    0.2901820612    0.5297696302
C        0.2842160158   -0.8932930795    1.4559161336
N       -0.0899035393   -0.7529226290    2.6370944479
C        0.9312107704   -0.7200211412   -1.9244366924
C        1.4930231780    0.4458727973   -2.0008735151
H        2.4702401045   -0.6296552875   -0.2738929908
H        1.2414156759    1.0086942618    1.1294548181
H        0.3315313641   -1.8947019676    0.9969699577
H        0.3979282895   -1.5313827276   -2.3967631473
H        1.7707611830    1.3154354455   -2.5769050262
13   
IRC product Energy -340.92180401
C       -1.4487362063    1.5262448990   -0.3198636723
N       -0.5090020711    0.9597627676    0.1112956395
C        1.4752135430   -0.2575699614   -0.6830810760
C        0.6578190484    0.2647002196    0.5191904645
C        0.3295491713   -0.8853496435    1.5000207156
N       -0.5538600442   -0.8541454093    2.3803899080
C        0.8491752572   -0.6837448562   -1.9763656917
C        1.4902243804    0.4432893163   -2.0057566927
H        2.3805384452   -0.7603575312   -0.3203690364
H        1.2901908184    0.9692707073    1.0784768548
H        0.9813020791   -1.7693486017    1.4079819893
H        0.2618063006   -1.4389387198   -2.4763530867
H        1.8278504189    1.3149443660   -2.5457419623
