13   
Iteration 0 Energy -340.92109561
C       -2.1240705393    1.4563154808   -0.7840807810
N       -1.2955798865    1.0125616537   -0.0724075148
C        0.9062671033   -0.0798864141   -0.1536761207
C       -0.2590999604    0.4431209487    0.7125695455
C       -0.8059764990   -0.7026804052    1.6030274316
N       -1.7750126698   -0.6011956343    2.3795263075
C        0.6886526125   -0.7593126391   -1.4730710116
C        1.1821509438    0.4386281599   -1.5291103965
H        1.7319094741   -0.3982651030    0.4943444423
H        0.1230452002    1.2215311599    1.3857149701
H       -0.2590165156   -1.6560592973    1.5109363205
H        0.3435289132   -1.6526134632   -1.9715548407
H        1.5433541596    1.2780256161   -2.1020803502
13   
Iteration 1 Energy -340.92114221
C       -2.1189069913    1.4542798952   -0.7887579770
N       -1.2953392215    1.0061241028   -0.0740351415
C        0.9074498759   -0.0798190177   -0.1565313047
C       -0.2586728395    0.4378699076    0.7117167372
C       -0.8072529122   -0.7043826944    1.6097610811
N       -1.7692769364   -0.5889717317    2.3943072045
C        0.6922033224   -0.7555693130   -1.4785554999
C        1.1832246651    0.4433572429   -1.5320004237
H        1.7352176361   -0.3967093102    0.4898218088
H        0.1221124594    1.2175263702    1.3840222971
H       -0.2739104129   -1.6646784558    1.5225690990
H        0.3495566113   -1.6479424146   -1.9803835132
H        1.5433102427    1.2843329431   -2.1047011737
13   
Iteration 2 Energy -340.92116829
C       -2.1178568881    1.4470092322   -0.7924447291
N       -1.2969197284    0.9975095849   -0.0755250502
C        0.9081168050   -0.0832817163   -0.1604377276
C       -0.2561639948    0.4351481249    0.7091969934
C       -0.7989336784   -0.7007918868    1.6189502276
N       -1.7487150794   -0.5751387026    2.4169852955
C        0.6935476356   -0.7462958000   -1.4889616036
C        1.1908207305    0.4505073585   -1.5309144788
H        1.7346769364   -0.4061430378    0.4845457424
H        0.1247371409    1.2201411813    1.3752521529
H       -0.2728027295   -1.6650543816    1.5337829673
H        0.3471187169   -1.6321580737   -1.9996621746
H        1.5585624955    1.2930628045   -2.0965946122
13   
Iteration 3 Energy -340.92118897
C       -2.1177168101    1.4362175125   -0.7882263749
N       -1.2919187037    0.9924273308   -0.0733251639
C        0.9136033801   -0.0868922766   -0.1654058861
C       -0.2444789396    0.4383430909    0.7083417764
C       -0.7782688675   -0.6898052352    1.6326098579
N       -1.7217721336   -0.5582712628    2.4371483232
C        0.6934650558   -0.7298639261   -1.5027360390
C        1.2074642565    0.4603492974   -1.5280936726
H        1.7345543375   -0.4279887731    0.4774553385
H        0.1404678380    1.2300892721    1.3640916759
H       -0.2510304875   -1.6539589591    1.5529404169
H        0.3352052365   -1.6040104351   -2.0252888358
H        1.5900648642    1.3037911355   -2.0825281897
13   
Iteration 4 Energy -340.92119989
C       -1.9668316529    1.4876963333   -0.6579012720
N       -1.1072916175    1.0247108501    0.0030195169
C        1.0792613101   -0.0717643588   -0.2312452744
C       -0.0209299017    0.4523186089    0.7151757394
C       -0.5084797363   -0.6824297851    1.6560631851
N       -1.4125586814   -0.5584064095    2.5058380939
C        0.7796637118   -0.6495985990   -1.5826054033
C        1.3310377156    0.5240752548   -1.5816538922
H        1.9164166462   -0.4645076104    0.3592618528
H        0.4086696634    1.2331218830    1.3564132513
H        0.0169650028   -1.6445934008    1.5458941649
H        0.3696538034   -1.4890634897   -2.1235751128
H        1.7168606276    1.3777652423   -2.1179268474
13   
Iteration 5 Energy -340.92120207
C       -1.4372869539    1.4143836937   -0.3675674976
N       -0.4708195885    0.8915637200    0.0597586796
C        1.5921387917   -0.1956681238   -0.7145068066
C        0.7261109840    0.2549945024    0.4807683288
C        0.4194960638   -0.9519027987    1.4082966726
N       -0.2929625132   -0.8981834208    2.4301977635
C        1.0013183826   -0.6522248828   -2.0152386601
C        1.5733426937    0.5114047080   -2.0341570463
H        2.5227055742   -0.6458734388   -0.3471253141
H        1.2975933838    0.9772264897    1.0784661499
H        0.8980504251   -1.9011564094    1.1186383682
H        0.4632306479   -1.4379400851   -2.5237004726
H        1.8619814178    1.4042514981   -2.5677462782
13   
Iteration 6 Energy -340.92120173
C       -1.4379903686    1.4125656715   -0.3641584103
N       -0.4695781600    0.8917130781    0.0610872997
C        1.5928559732   -0.1949782917   -0.7155341446
C        0.7275789949    0.2546898241    0.4804423622
C        0.4206264110   -0.9520540672    1.4078435119
N       -0.2882031645   -0.8963173175    2.4321967342
C        1.0035325627   -0.6522431390   -2.0169495777
C        1.5732027506    0.5125325691   -2.0349965851
H        2.5240303477   -0.6440040385   -0.3481297792
H        1.2999458409    0.9763026699    1.0780128648
H        0.8936615315   -1.9032845518    1.1155419806
H        0.4675594234   -1.4385523536   -2.5267611119
H        1.8605930259    1.4061353515   -2.5680424200
13   
Iteration 7 Energy -340.92120151
C       -1.4410769926    1.4118146100   -0.3651504620
N       -0.4724264476    0.8915144118    0.0602213351
C        1.5902126884   -0.1954339969   -0.7155087724
C        0.7242776950    0.2539513236    0.4800418332
C        0.4162524752   -0.9529213402    1.4069198738
N       -0.2923291293   -0.8968083586    2.4314274085
C        1.0021221168   -0.6538853312   -2.0170502649
C        1.5701213646    0.5117156522   -2.0351701468
H        2.5218503182   -0.6431089569   -0.3476093004
H        1.2966285987    0.9751327788    1.0781399366
H        0.8875691371   -1.9047422800    1.1137666540
H        0.4677768258   -1.4411254489   -2.5271435870
H        1.8564981383    1.4055941769   -2.5682966982
13   
Iteration 8 Energy -340.92120114
C       -1.4442777593    1.4110322978   -0.3671850859
N       -0.4758509531    0.8909665745    0.0589824605
C        1.5874435685   -0.1960658750   -0.7149068833
C        0.7205170883    0.2534625419    0.4798533151
C        0.4116811542   -0.9533377176    1.4065909799
N       -0.2967361922   -0.8967845045    2.4311850968
C        1.0004991799   -0.6554426284   -2.0166386428
C        1.5678698203    0.5104605054   -2.0349176809
H        2.5190808129   -0.6430412026   -0.3461531536
H        1.2923941564    0.9746933889    1.0783320880
H        0.8820727401   -1.9055255985    1.1131499416
H        0.4670712405   -1.4432700081   -2.5267880904
H        1.8541166696    1.4042532138   -2.5682565132
13   
Iteration 9 Energy -340.92120057
C       -1.4506372819    1.4099808215   -0.3723705202
N       -0.4830628985    0.8901448264    0.0560129716
C        1.5815672132   -0.1977295441   -0.7131032357
C        0.7124062367    0.2527696801    0.4796555896
C        0.4014724908   -0.9533751126    1.4065887377
N       -0.3072983474   -0.8954465871    2.4308581839
C        0.9970544539   -0.6587179828   -2.0153650471
C        1.5640365419    0.5073690981   -2.0339138846
H        2.5127300753   -0.6439518466   -0.3422509202
H        1.2832318713    0.9743030099    1.0787519249
H        0.8705236199   -1.9063529935    1.1135749069
H        0.4649531845   -1.4473492987   -2.5256589555
H        1.8508861348    1.4006967554   -2.5677062250
13   
Iteration 10 Energy -340.92119964
C       -1.4642893167    1.4079151084   -0.3841767752
N       -0.4987417468    0.8886246365    0.0494156373
C        1.5687423909   -0.2016651600   -0.7084993501
C        0.6946074154    0.2515909341    0.4795507966
C        0.3788676471   -0.9526464915    1.4074181463
N       -0.3313870314   -0.8913490738    2.4304570974
C        0.9896699766   -0.6657081409   -2.0121177981
C        1.5567311037    0.5003331509   -2.0310319769
H        2.4983502595   -0.6470010066   -0.3327198057
H        1.2631286961    0.9740053550    1.0797390685
H        0.8456028237   -1.9073347401    1.1162962729
H        0.4598450585   -1.4555866553   -2.5228536839
H        1.8458260720    1.3924061247   -2.5657094782
13   
Iteration 11 Energy -340.92119864
C       -1.4837894590    1.4060834869   -0.4013813903
N       -0.5215069726    0.8873861781    0.0401153275
C        1.5496494123   -0.2075436345   -0.7008327179
C        0.6684133806    0.2505863369    0.4800553053
C        0.3451307007   -0.9503394071    1.4097242141
N       -0.3673948652   -0.8834642574    2.4308251256
C        0.9783858155   -0.6761262529   -2.0062891173
C        1.5462496342    0.4895085370   -2.0260419254
H        2.4766460972   -0.6519987241   -0.3176429012
H        1.2338118257    0.9743256543    1.0815456111
H        0.8082247100   -1.9077722591    1.1218399723
H        0.4513475714   -1.4676208136   -2.5174106971
H        1.8392170070    1.3794002845   -2.5622439044
13   
Iteration 12 Energy -340.92119794
C       -1.5050794326    1.4101413764   -0.4177051561
N       -0.5472115729    0.8905795468    0.0323034035
C        1.5247553697   -0.2149096822   -0.6903678497
C        0.6378388942    0.2519928501    0.4827681771
C        0.3042920383   -0.9434300491    1.4160480522
N       -0.4083384852   -0.8671853018    2.4364077262
C        0.9598168463   -0.6897610767   -1.9963387226
C        1.5305116951    0.4744202158   -2.0196224345
H        2.4485069827   -0.6592785078   -0.2993390800
H        1.2019308799    0.9766491270    1.0843088314
H        0.7595631668   -1.9056024581    1.1315390281
H        0.4339045547   -1.4829909030   -2.5059331117
H        1.8286597043    1.3604822610   -2.5592966139
13   
Iteration 13 Energy -340.92119790
C       -1.4930189904    1.4507870169   -0.3835509523
N       -0.5415494530    0.9145421651    0.0604300185
C        1.5025042096   -0.2332822158   -0.6755344702
C        0.6347733897    0.2548106093    0.5032921721
C        0.2859344242   -0.9307210723    1.4436428750
N       -0.4129268730   -0.8361665768    2.4719578588
C        0.9171358935   -0.7056580918   -1.9734165793
C        1.5070686032    0.4485837827   -2.0086581241
H        2.4223309068   -0.6910994717   -0.2908448321
H        1.2178085002    0.9704962825    1.0974195632
H        0.7163732837   -1.9034433472    1.1563861711
H        0.3732055474   -1.4926885977   -2.4736270968
H        1.8148721138    1.3265651931   -2.5560526193
13   
Iteration 14 Energy -340.92119790
C       -1.4819188230    1.4707957538   -0.3599530668
N       -0.5290985559    0.9320704934    0.0780843247
C        1.5056299646   -0.2239535124   -0.6707659063
C        0.6482427503    0.2692382918    0.5135018160
C        0.3026434756   -0.9133250873    1.4587429246
N       -0.3908187759   -0.8153093436    2.4903870199
C        0.9091176782   -0.6976216492   -1.9630603780
C        1.5019965882    0.4548718207   -2.0054458495
H        2.4270522187   -0.6834854139   -0.2919786025
H        1.2380502526    0.9841263316    1.1019012033
H        0.7305197983   -1.8872949798    1.1718745660
H        0.3592695148   -1.4843006267   -2.4573181535
H        1.8081876539    1.3306824303   -2.5572046503
13   
Iteration 15 Energy -340.92119791
C       -1.4803240015    1.4734027650   -0.3569587428
N       -0.5273605665    0.9336791399    0.0795342841
C        1.5043887422   -0.2257404142   -0.6721888476
C        0.6498233672    0.2694579183    0.5132641442
C        0.3042135930   -0.9120428511    1.4598445377
N       -0.3870840867   -0.8123035043    2.4927730982
C        0.9049320156   -0.6983893022   -1.9634846064
C        1.5002123360    0.4528244774   -2.0069953404
H        2.4254038093   -0.6871381547   -0.2946718785
H        1.2416815021    0.9838797658    1.1001705673
H        0.7300148977   -1.8868452439    1.1727194006
H        0.3526033490   -1.4839712937   -2.4567206585
H        1.8074585978    1.3278516029   -2.5594128082
13   
Iteration 16 Energy -340.92119790
C       -1.4801614284    1.4742799497   -0.3564897770
N       -0.5272840242    0.9342163342    0.0797703704
C        1.5035335096   -0.2265128020   -0.6724424233
C        0.6497546356    0.2695489766    0.5132186808
C        0.3039248923   -0.9114508115    1.4603495820
N       -0.3863898031   -0.8108532433    2.4938513115
C        0.9032644035   -0.6989410265   -1.9634437532
C        1.4994008789    0.4518143139   -2.0073687205
H        2.4243345838   -0.6885356681   -0.2951693730
H        1.2422317124    0.9838700144    1.0996181401
H        0.7286035227   -1.8866978154    1.1730727547
H        0.3501451886   -1.4841833439   -2.4563342796
H        1.8071116491    1.3265094609   -2.5600538889
13   
Iteration 17 Energy -340.92119791
C       -1.4795014667    1.4748813720   -0.3558199320
N       -0.5266194050    0.9345677646    0.0801205814
C        1.5037168025   -0.2265912774   -0.6727439853
C        0.6503946298    0.2696114252    0.5131898465
C        0.3045949487   -0.9113391059    1.4603853948
N       -0.3856750193   -0.8107115924    2.4939146885
C        0.9029626513   -0.6989688747   -1.9635376448
C        1.4992287655    0.4517110141   -2.0076820232
H        2.4245851849   -0.6887222314   -0.2957682115
H        1.2432094413    0.9837780732    1.0994387849
H        0.7292613218   -1.8865964488    1.1731249003
H        0.3496032475   -1.4841621599   -2.4562361980
H        1.8068709704    1.3263560633   -2.5604842168
13   
Iteration 18 Energy -340.92119791
C       -1.4752479676    1.4813069233   -0.3512686027
N       -0.5227500817    0.9381722156    0.0819982882
C        1.5009360759   -0.2308319455   -0.6765841820
C        0.6534388078    0.2696063634    0.5117406559
C        0.3068068131   -0.9091265932    1.4613971710
N       -0.3793585874   -0.8049447557    2.4973050034
C        0.8941097168   -0.7021913040   -1.9649069528
C        1.4944548855    0.4462423819   -2.0121354007
H        2.4213606066   -0.6959979871   -0.3022654373
H        1.2507392620    0.9823400675    1.0951723588
H        0.7269148736   -1.8862051090    1.1736210922
H        0.3361936769   -1.4857895213   -2.4549985994
H        1.8034454311    1.3192361351   -2.5667924701
13   
Iteration 19 Energy -340.92119791
C       -1.4643900802    1.5023454887   -0.3326738318
N       -0.5131918408    0.9548459403    0.0979463215
C        1.4998142769   -0.2288404977   -0.6662326727
C        0.6608720845    0.2804609419    0.5243996020
C        0.3114248657   -0.8930969420    1.4794179004
N       -0.3692611615   -0.7813649931    2.5181508319
C        0.8842153669   -0.7004916568   -1.9502815531
C        1.4912517926    0.4441414128   -2.0038410354
H        2.4191331563   -0.6984104524   -0.2947078336
H        1.2651957674    0.9913664897    1.1028068848
H        0.7241500600   -1.8736698126    1.1928500396
H        0.3193195682   -1.4822005095   -2.4353703869
H        1.8029381673    1.3135460644   -2.5626132800
13   
Iteration 20 Energy -340.92119791
C       -1.4643336853    1.5024622857   -0.3325772478
N       -0.5131466436    0.9549044913    0.0979932269
C        1.4998232861   -0.2288325211   -0.6662440264
C        0.6609188129    0.2804953006    0.5244013546
C        0.3115004221   -0.8930950189    1.4793870407
N       -0.3692029266   -0.7814464681    2.5181165741
C        0.8841841963   -0.7005056275   -1.9502639499
C        1.4912496145    0.4441091535   -2.0038727544
H        2.4191410973   -0.6984104774   -0.2947261939
H        1.2652664243    0.9913866737    1.1028018997
H        0.7242798112   -1.8736343360    1.1927813441
H        0.3192620772   -1.4822203269   -2.4353123123
H        1.8029438911    1.3134853138   -2.5626840104
13   
Iteration 21 Energy -340.92119791
C       -1.4642843004    1.5025391907   -0.3325208016
N       -0.5131079715    0.9549421637    0.0980233505
C        1.4998250085   -0.2288354235   -0.6662548843
C        0.6609536495    0.2805112220    0.5244056517
C        0.3115391706   -0.8930836227    1.4793863419
N       -0.3691750618   -0.7814504468    2.5181100940
C        0.8841464965   -0.7005158497   -1.9502529564
C        1.4912356807    0.4440851347   -2.0038938242
H        2.4191425761   -0.6984251517   -0.2947507632
H        1.2653252841    0.9913896160    1.1027973813
H        0.7243365720   -1.8736146166    1.1927776735
H        0.3191991319   -1.4822291459   -2.4352743597
H        1.8029349047    1.3134444826   -2.5627285498
