13   
IRC reactant Energy -340.92653663
C       -3.0198978293   -0.2737163628   -0.2017234076
N       -1.8950835576   -0.0239119173    0.0505433981
C        0.4004930603   -0.5329475691   -0.6103006780
C       -0.5230057626    0.2348616353    0.3498715476
C       -0.2401152781   -0.1757304718    1.8055243511
N        0.3206761935    0.5759372485    2.6294935456
C        0.9018982975    0.1062911044   -1.8746748882
C        1.7750135519   -0.0146036656   -0.9242687034
H        0.2130299251   -1.6116089852   -0.5814919578
H       -0.3371874551    1.3087767379    0.2539222588
H       -0.5379874630   -1.2001584652    2.0785607942
H        0.6378931032    0.4055312074   -2.8777321148
H        2.7797627510    0.1095994287   -0.5492786827
