13   
Iteration 0 Energy -340.92653663
C       -3.0198978293   -0.2737163628   -0.2017234076
N       -1.8950835576   -0.0239119173    0.0505433981
C        0.4004930603   -0.5329475691   -0.6103006780
C       -0.5230057626    0.2348616353    0.3498715476
C       -0.2401152781   -0.1757304718    1.8055243511
N        0.3206761935    0.5759372485    2.6294935456
C        0.9018982975    0.1062911044   -1.8746748882
C        1.7750135519   -0.0146036656   -0.9242687034
H        0.2130299251   -1.6116089852   -0.5814919578
H       -0.3371874551    1.3087767379    0.2539222588
H       -0.5379874630   -1.2001584652    2.0785607942
H        0.6378931032    0.4055312074   -2.8777321148
H        2.7797627510    0.1095994287   -0.5492786827
13   
Iteration 1 Energy -340.92653833
C       -3.0211237022   -0.2739265806   -0.2006470723
N       -1.8963817782   -0.0235435633    0.0509938573
C        0.3991100356   -0.5333678365   -0.6105274986
C       -0.5238830140    0.2347949663    0.3494175953
C       -0.2383705571   -0.1765919125    1.8040259716
N        0.3256748403    0.5761013326    2.6247507344
C        0.9027096271    0.1065039064   -1.8736424510
C        1.7739837886   -0.0145891175   -0.9215327041
H        0.2114687903   -1.6120210932   -0.5822682984
H       -0.3376918908    1.3086639995    0.2536392545
H       -0.5345985444   -1.2012226070    2.0779270100
H        0.6404863018    0.4063160448   -2.8769918475
H        2.7779327466    0.1096797992   -0.5444362544
13   
Iteration 2 Energy -340.92653942
C       -3.0226671641   -0.2761497477   -0.1983395912
N       -1.8982227149   -0.0236402720    0.0521856952
C        0.3976747396   -0.5326454967   -0.6109786760
C       -0.5253380203    0.2352832571    0.3489599147
C       -0.2356073836   -0.1762297631    1.8025293856
N        0.3316281062    0.5742591489    2.6230918983
C        0.9045683846    0.1070288981   -1.8729054103
C        1.7737240500   -0.0153764530   -0.9190653682
H        0.2091250374   -1.6111368842   -0.5831602048
H       -0.3396427144    1.3091832912    0.2530556353
H       -0.5302452190   -1.2014006655    2.0756608077
H        0.6447164354    0.4074633804   -2.8766803907
H        2.7770314196    0.1074874875   -0.5398127989
13   
Iteration 3 Energy -340.92654038
C       -3.0228334817   -0.2791230387   -0.1960484023
N       -1.8986369285   -0.0244813410    0.0535715289
C        0.3971152249   -0.5323423180   -0.6117304191
C       -0.5257833200    0.2352620700    0.3488752762
C       -0.2339195984   -0.1761826636    1.8020803158
N        0.3347784322    0.5747918858    2.6212104707
C        0.9060839525    0.1086461178   -1.8721643659
C        1.7743588060   -0.0170435397   -0.9179605245
H        0.2071121545   -1.6106299409   -0.5854995062
H       -0.3408236869    1.3092598377    0.2526674715
H       -0.5281289179   -1.2012995941    2.0761370437
H        0.6475094878    0.4112766755   -2.8756130291
H        2.7775756998    0.1033661518   -0.5376757374
