13   
IRC reactant Energy -340.92393773
C       -1.2234925847    2.0892101392    0.3682846835
N       -0.3699595423    1.3727461220    0.7519201983
C        1.4084557809   -0.1012588428   -0.1013315135
C        0.6766845615    0.4953836961    1.1285872934
C        0.1755217710   -0.6438853085    2.0264738196
N       -1.0090227565   -0.8498900211    2.3639845916
C        0.6775553475   -0.5379860085   -1.3329988210
C        1.3669567017    0.5544899058   -1.4477775364
H        2.3068247116   -0.6391359057    0.2235589381
H        1.4070211060    1.0688689652    1.7175297674
H        0.9711760201   -1.3270055896    2.3654820784
H        0.0188741131   -1.2789443294   -1.7600364765
H        1.7067483833    1.3917373084   -2.0383040071
13   
IRC product Energy -340.92655419
C       -1.4919156181    1.7711620685    0.1210811725
N       -0.5600790648    1.2308887406    0.6012734696
C        1.4570225229   -0.0384152479   -0.0212878440
C        0.5692099796    0.5347763138    1.1107806673
C        0.1001048127   -0.6101044916    2.0243757947
N        0.6122142826   -0.8480139938    3.1378088816
C        0.8941488901   -0.5621694471   -1.3088881306
C        1.5061562914    0.5783805933   -1.3870403770
H        2.3520777567   -0.4942390771    0.4146576438
H        1.1645880445    1.2277001039    1.7149761717
H       -0.6990457842   -1.2468298493    1.6147636050
H        0.3581063254   -1.3680180449   -1.7874155397
H        1.8507551744    1.4192124628   -1.9697124993
