13   
Iteration 1 Energy -340.92393771
C       -1.2233683168    2.0895023442    0.3678284369
N       -0.3699749029    1.3729658203    0.7516429368
C        1.4082153801   -0.1014950708   -0.1012452058
C        0.6765007303    0.4955061492    1.1285346588
C        0.1750305171   -0.6434948796    2.0266007397
N       -1.0096118278   -0.8491648576    2.3639650410
C        0.6772773685   -0.5382557778   -1.3328819533
C        1.3668954796    0.5540704780   -1.4477866473
H        2.3064661482   -0.6395001226    0.2237674922
H        1.4069399874    1.0689579816    1.7173826077
H        0.9704758275   -1.3267133530    2.3658601659
H        0.0184651381   -1.2791437216   -1.7598392872
H        1.7068717820    1.3911703923   -2.0384156472
13   
Iteration 0 Energy -340.92393773
C       -1.2234925847    2.0892101392    0.3682846835
N       -0.3699595423    1.3727461220    0.7519201983
C        1.4084557809   -0.1012588428   -0.1013315135
C        0.6766845615    0.4953836961    1.1285872934
C        0.1755217710   -0.6438853085    2.0264738196
N       -1.0090227565   -0.8498900211    2.3639845916
C        0.6775553475   -0.5379860085   -1.3329988210
C        1.3669567017    0.5544899058   -1.4477775364
H        2.3068247116   -0.6391359057    0.2235589381
H        1.4070211060    1.0688689652    1.7175297674
H        0.9711760201   -1.3270055896    2.3654820784
H        0.0188741131   -1.2789443294   -1.7600364765
H        1.7067483833    1.3917373084   -2.0383040071
13   
Iteration 91 Energy -340.92393772
C       -1.2235370216    2.0891656297    0.3682963077
N       -0.3699652244    1.3727454250    0.7519224222
C        1.4084730294   -0.1012302398   -0.1013248879
C        0.6766900513    0.4953903177    1.1285875338
C        0.1755193959   -0.6438897519    2.0264587973
N       -1.0090125967   -0.8497347536    2.3641052235
C        0.6775767672   -0.5379934789   -1.3329773370
C        1.3669738180    0.5544817429   -1.4477870611
H        2.3068405741   -0.6390968040    0.2235861297
H        1.4069768395    1.0688911446    1.7175737939
H        0.9711473702   -1.3271522956    2.3652680163
H        0.0188961861   -1.2789607186   -1.7600002544
H        1.7067644242    1.3917139138   -2.0383356683
13   
Iteration 90 Energy -340.92393676
C       -1.2294832167    2.0823270883    0.3656787794
N       -0.3736684082    1.3690806990    0.7502460790
C        1.4064393194   -0.1033731054   -0.1018812588
C        0.6752150197    0.4946841693    1.1275469754
C        0.1779030419   -0.6427557509    2.0298774825
N       -1.0048800882   -0.8464689890    2.3748474652
C        0.6764269420   -0.5341767362   -1.3361822894
C        1.3715121833    0.5551058480   -1.4471326192
H        2.3016006962   -0.6460339597    0.2240364481
H        1.4052692291    1.0711450331    1.7140154213
H        0.9747299988   -1.3257280625    2.3660927770
H        0.0153811181   -1.2711665104   -1.7664180547
H        1.7168977776    1.3916904077   -2.0353541902
13   
Iteration 89 Energy -340.92393591
C       -1.2320313201    2.0792972210    0.3645681711
N       -0.3753092050    1.3673487718    0.7494781560
C        1.4057131682   -0.1041849160   -0.1020422957
C        0.6747626281    0.4945941327    1.1271956322
C        0.1786113861   -0.6420767803    2.0313092764
N       -1.0032713433   -0.8451383894    2.3796849234
C        0.6759540702   -0.5325178403   -1.3373841295
C        1.3734489340    0.5553801650   -1.4468391635
H        2.2994609342   -0.6488546070    0.2242438644
H        1.4048355171    1.0723545387    1.7123933012
H        0.9760593249   -1.3256010979    2.3659012329
H        0.0139296142   -1.2678738510   -1.7689092493
H        1.7211799046    1.3916027837   -2.0342267038
13   
Iteration 88 Energy -340.92393392
C       -1.2368375127    2.0738996435    0.3626624504
N       -0.3781612629    1.3646551924    0.7482432211
C        1.4039819509   -0.1059650304   -0.1025324089
C        0.6735031743    0.4939499358    1.1263227881
C        0.1809891599   -0.6412787162    2.0340730124
N       -0.9998305686   -0.8428012256    2.3868650128
C        0.6748821630   -0.5294504065   -1.3399499776
C        1.3770808804    0.5557318301   -1.4463266069
H        2.2951027231   -0.6545897546    0.2245698317
H        1.4031360434    1.0740647358    1.7097634256
H        0.9793359154   -1.3238260187    2.3674241093
H        0.0107740806   -1.2614472526   -1.7739701854
H        1.7293868665    1.3913871982   -2.0317716569
13   
Iteration 87 Energy -340.92392814
C       -1.2455538458    2.0635339971    0.3589876618
N       -0.3836470193    1.3588967987    0.7458443727
C        1.4010569593   -0.1090762516   -0.1033061974
C        0.6717051345    0.4931914785    1.1249284786
C        0.1839610529   -0.6392743653    2.0389123931
N       -0.9939685051   -0.8388721883    2.4023328620
C        0.6731189592   -0.5236262428   -1.3444662129
C        1.3837756464    0.5566150672   -1.4452616160
H        2.2872479166   -0.6648415089    0.2250805145
H        1.4013953476    1.0777387559    1.7040455962
H        0.9843738617   -1.3213560800    2.3688473739
H        0.0055554098   -1.2496778908   -1.7831456024
H        1.7443226956    1.3910785616   -2.0274266086
13   
Iteration 86 Energy -340.92391759
C       -1.2565837579    2.0507447114    0.3546524764
N       -0.3903569048    1.3521923791    0.7428241156
C        1.3972789086   -0.1131826196   -0.1043909896
C        0.6691094338    0.4920838252    1.1231015813
C        0.1889674431   -0.6368508292    2.0454693482
N       -0.9863029956   -0.8339462560    2.4185330642
C        0.6706463041   -0.5163307643   -1.3502169345
C        1.3920745513    0.5573854279   -1.4439113791
H        2.2771811120   -0.6780432195    0.2254793911
H        1.3982736714    1.0820250634    1.6974014770
H        0.9916620856   -1.3176149350    2.3726145477
H       -0.0016483192   -1.2345238932   -1.7945577028
H        1.7630420809    1.3903912409   -2.0216259797
13   
Iteration 85 Energy -340.92390794
C       -1.2637890260    2.0420916302    0.3518361075
N       -0.3948686177    1.3473656092    0.7410066646
C        1.3946844095   -0.1158933931   -0.1051564927
C        0.6675903421    0.4912118419    1.1218058839
C        0.1915086449   -0.6352612424    2.0493516221
N       -0.9812287345   -0.8308133937    2.4311842705
C        0.6692339698   -0.5114013766   -1.3540710373
C        1.3977075156    0.5580070799   -1.4429834684
H        2.2703979490   -0.6867312881    0.2257317069
H        1.3965483121    1.0849678074    1.6926257121
H        0.9959295629   -1.3146700019    2.3741521381
H       -0.0059126635   -1.2244755555   -1.8023064061
H        1.7755419491    1.3899324139   -2.0178036855
13   
Iteration 84 Energy -340.92389082
C       -1.2744215515    2.0296471659    0.3476694507
N       -0.4015208575    1.3406670740    0.7379996433
C        1.3910481840   -0.1198132499   -0.1062411482
C        0.6649435476    0.4901500448    1.1200543992
C        0.1960629008   -0.6327970898    2.0556203959
N       -0.9736736982   -0.8251355547    2.4480087790
C        0.6671873485   -0.5043597960   -1.3596933442
C        1.4056459492    0.5587315373   -1.4415426470
H        2.2606104123   -0.6991817870    0.2259380604
H        1.3936811563    1.0889478496    1.6859086182
H        1.0026137463   -1.3118574193    2.3770990817
H       -0.0121479003   -1.2098832738   -1.8135107246
H        1.7933143758    1.3892146301   -2.0119375486
13   
Iteration 83 Energy -340.92387527
C       -1.2817965591    2.0206369000    0.3448020919
N       -0.4062342642    1.3355062833    0.7361138213
C        1.3883742426   -0.1226999429   -0.1071929174
C        0.6632486779    0.4888951533    1.1185268463
C        0.1987648459   -0.6310708527    2.0599364864
N       -0.9681021644   -0.8206859046    2.4620611042
C        0.6660520617   -0.4993111359   -1.3638734040
C        1.4114481121    0.5593482586   -1.4405895078
H        2.2536707350   -0.7080130998    0.2259462627
H        1.3912364045    1.0917970566    1.6811193901
H        1.0066969954   -1.3093617742    2.3780153792
H       -0.0160236454   -1.1995223190   -1.8217684429
H        1.8060081711    1.3888115086   -2.0077240942
13   
Iteration 82 Energy -340.92385185
C       -1.2916239709    2.0091919409    0.3407758220
N       -0.4125901451    1.3292669444    0.7332281646
C        1.3850360939   -0.1260983234   -0.1081641339
C        0.6604256518    0.4878714476    1.1168947360
C        0.2025008810   -0.6290320885    2.0652427050
N       -0.9606135015   -0.8133322666    2.4804878594
C        0.6648144871   -0.4930373420   -1.3690767897
C        1.4186741984    0.5600698468   -1.4391012166
H        2.2447630711   -0.7187645446    0.2262247120
H        1.3885313455    1.0950643744    1.6748281722
H        1.0120462860   -1.3085213529    2.3783578858
H       -0.0204891377   -1.1866017887   -1.8322456013
H        1.8218683535    1.3882532837   -2.0020792996
13   
Iteration 81 Energy -340.92382716
C       -1.2997662179    1.9990717999    0.3375046629
N       -0.4179134249    1.3234155051    0.7311552094
C        1.3823150900   -0.1291565544   -0.1092531696
C        0.6584601715    0.4862431400    1.1151174240
C        0.2054283453   -0.6268479651    2.0703738850
N       -0.9538955569   -0.8059624576    2.4982121746
C        0.6640977168   -0.4877102362   -1.3737207915
C        1.4249371571    0.5607417093   -1.4380481969
H        2.2376028713   -0.7278496750    0.2260514405
H        1.3849603717    1.0982395305    1.6699993342
H        1.0154671815   -1.3080470346    2.3767047019
H       -0.0237439725   -1.1756803120   -1.8414233176
H        1.8353938802    1.3878726814   -1.9973003412
13   
Iteration 80 Energy -340.92380679
C       -1.3056455521    1.9928951122    0.3346420475
N       -0.4219802651    1.3202481418    0.7292308767
C        1.3805795363   -0.1299962722   -0.1093358129
C        0.6561823860    0.4864812637    1.1143702353
C        0.2070269187   -0.6272205468    2.0711342336
N       -0.9488741970   -0.8000913283    2.5105795144
C        0.6638858910   -0.4842796423   -1.3757946567
C        1.4291751294    0.5611388435   -1.4370880684
H        2.2325619549   -0.7325139401    0.2272644886
H        1.3844294110    1.0993006837    1.6661188620
H        1.0177941614   -1.3099938444    2.3745624792
H       -0.0257209801   -1.1689776600   -1.8456995187
H        1.8439292188    1.3873393202   -1.9946116648
13   
Iteration 79 Energy -340.92377117
C       -1.3149731020    1.9803924567    0.3308307997
N       -0.4279709074    1.3128311599    0.7266903485
C        1.3771380418   -0.1348841084   -0.1111154312
C        0.6540793590    0.4836502660    1.1121728785
C        0.2108274093   -0.6230128809    2.0795286295
N       -0.9408403241   -0.7906462394    2.5320255187
C        0.6631172656   -0.4780872867   -1.3824083232
C        1.4361372572    0.5620508705   -1.4355078082
H        2.2240950666   -0.7444103228    0.2258354792
H        1.3792546167    1.1034229643    1.6603754829
H        1.0217974587   -1.3088009802    2.3733609192
H       -0.0288629569   -1.1557589422   -1.8589515513
H        1.8595444289    1.3875831745   -1.9874639268
13   
Iteration 78 Energy -340.92372128
C       -1.3249266261    1.9682958124    0.3256284706
N       -0.4350694095    1.3057467666    0.7234751291
C        1.3742116516   -0.1376056900   -0.1120331615
C        0.6505202541    0.4821168712    1.1102595026
C        0.2134885161   -0.6218575161    2.0839406760
N       -0.9307529673   -0.7750333511    2.5597525415
C        0.6638455173   -0.4724723877   -1.3876327720
C        1.4431404169    0.5633220158   -1.4337063648
H        2.2163821665   -0.7529123433    0.2264423480
H        1.3760114889    1.1057375218    1.6538310569
H        1.0228309814   -1.3147437268    2.3660499796
H       -0.0298416522   -1.1445844613   -1.8695313817
H        1.8735032755    1.3883206200   -1.9811030086
13   
Iteration 77 Energy -340.92366577
C       -1.3326086138    1.9579429111    0.3209617756
N       -0.4410561794    1.2988310580    0.7208001911
C        1.3716539674   -0.1407590915   -0.1133063720
C        0.6476573741    0.4796398711    1.1083576713
C        0.2154993152   -0.6199063083    2.0894943372
N       -0.9215204222   -0.7593869233    2.5863853815
C        0.6650954971   -0.4680676698   -1.3931146779
C        1.4485580563    0.5648694136   -1.4320393800
H        2.2104515659   -0.7603025150    0.2260072659
H        1.3723697113    1.1076563863    1.6480867584
H        1.0220074527   -1.3207538785    2.3589072495
H       -0.0290203743   -1.1357067110   -1.8805764530
H        1.8842562630    1.3902735885   -1.9745907321
13   
Iteration 76 Energy -340.92361102
C       -1.3377366930    1.9510075247    0.3167962154
N       -0.4457489632    1.2936720913    0.7186280979
C        1.3699436700   -0.1426370495   -0.1141815826
C        0.6449812930    0.4775839644    1.1068949782
C        0.2163346617   -0.6191415892    2.0931504053
N       -0.9133238115   -0.7445186783    2.6101675517
C        0.6669654213   -0.4654305072   -1.3971736055
C        1.4521486240    0.5663842301   -1.4307756371
H        2.2068981294   -0.7642775639    0.2259983546
H        1.3694637655    1.1082883746    1.6439391392
H        1.0192127778   -1.3285327763    2.3504072723
H       -0.0265430687   -1.1306812036   -1.8887454135
H        1.8907478069    1.3926133140   -1.9697327601
13   
Iteration 75 Energy -340.92355125
C       -1.3415281554    1.9458779840    0.3126964302
N       -0.4498360640    1.2894440776    0.7166949855
C        1.3687071262   -0.1438194167   -0.1148286690
C        0.6423590177    0.4756354375    1.1055892554
C        0.2164209832   -0.6188098470    2.0960181424
N       -0.9049726169   -0.7294591461    2.6339311593
C        0.6693235014   -0.4638069549   -1.4005089379
C        1.4548558721    0.5678751267   -1.4297465621
H        2.2046980118   -0.7663057836    0.2262968204
H        1.3662740130    1.1084780401    1.6410272311
H        1.0148036992   -1.3380298129    2.3395051142
H       -0.0228807145   -1.1278691788   -1.8955120478
H        1.8951189394    1.3951196053   -1.9657899061
13   
Iteration 74 Energy -340.92347821
C       -1.3447283207    1.9418443332    0.3081446627
N       -0.4538361675    1.2858999179    0.7147071293
C        1.3678491482   -0.1442658536   -0.1151583348
C        0.6394292128    0.4738751389    1.1043745559
C        0.2159263158   -0.6189780399    2.0981640470
N       -0.8951192248   -0.7125931775    2.6601820319
C        0.6723401350   -0.4629736904   -1.4032537453
C        1.4571311445    0.5693687068   -1.4288080132
H        2.2035089670   -0.7665622920    0.2272194124
H        1.3623207336    1.1084920961    1.6392300647
H        1.0082227989   -1.3506543430    2.3242956020
H       -0.0178998796   -1.1268472192   -1.9012462993
H        1.8981987500    1.3977245539   -1.9624780975
13   
Iteration 73 Energy -340.92338153
C       -1.3476113826    1.9385800945    0.3028819313
N       -0.4579772162    1.2828656372    0.7125751177
C        1.3673979678   -0.1439394618   -0.1151027830
C        0.6361262719    0.4723262824    1.1032293459
C        0.2147891457   -0.6195313475    2.0997517742
N       -0.8825897774   -0.6928364529    2.6907887018
C        0.6762467826   -0.4629707093   -1.4054537737
C        1.4590791600    0.5709258417   -1.4278798336
H        2.2034127672   -0.7649044957    0.2289300077
H        1.3573216469    1.1086284490    1.6384963416
H        0.9981869241   -1.3675885979    2.3029627151
H       -0.0111699832   -1.1277389239   -1.9061556071
H        1.9001313066    1.4005138154   -1.9596509222
13   
Iteration 72 Energy -340.92325503
C       -1.3501971004    1.9360834904    0.2970641755
N       -0.4621092760    1.2804954287    0.7103379560
C        1.3675184736   -0.1426712174   -0.1145333139
C        0.6326434043    0.4712548767    1.1022686593
C        0.2130062034   -0.6205225147    2.1005570815
N       -0.8669293342   -0.6705297267    2.7250585125
C        0.6810271122   -0.4639227039   -1.4068240167
C        1.4605771392    0.5724914184   -1.4269702628
H        2.2046626426   -0.7610457247    0.2315662142
H        1.3515332321    1.1090933846    1.6388760869
H        0.9836827014   -1.3889758081    2.2752148424
H       -0.0027219921   -1.1308097693   -1.9097367340
H        1.9006504069    1.4033889973   -1.9575061854
13   
Iteration 71 Energy -340.92309865
C       -1.3524738650    1.9342096890    0.2910979595
N       -0.4659613845    1.2787886880    0.7080832443
C        1.3683563584   -0.1404833021   -0.1134321358
C        0.6293572423    0.4708161278    1.1015856193
C        0.2106430242   -0.6218703691    2.1005023329
N       -0.8484235140   -0.6469585791    2.7610033242
C        0.6864718944   -0.4657691483   -1.4071769779
C        1.4615616733    0.5739979230   -1.4261160445
H        2.2073713550   -0.7551154359    0.2350075801
H        1.3454945240    1.1100377524    1.6402205448
H        0.9643755205   -1.4136571529    2.2423470110
H        0.0069520553   -1.1358923648   -1.9115311157
H        1.8996187293    1.4062263033   -1.9562183264
13   
Iteration 70 Energy -340.92291465
C       -1.3545677955    1.9326739772    0.2852789638
N       -0.4694164148    1.2775996623    0.7058039447
C        1.3699215542   -0.1375175859   -0.1118586169
C        0.6264806350    0.4710363339    1.1012094332
C        0.2078195450   -0.6235174168    2.0996952928
N       -0.8273576608   -0.6231252969    2.7973023224
C        0.6923866042   -0.4683057167   -1.4065483612
C        1.4621354333    0.5754126220   -1.4253399631
H        2.2114160589   -0.7474935534    0.2390397812
H        1.3395682959    1.1115404522    1.6422581352
H        0.9403403499   -1.4403888222    2.2058658243
H        0.0173915352   -1.1425339230   -1.9115273584
H        1.8972254727    1.4089493984   -1.9558063824
13   
Iteration 69 Energy -340.92273689
C       -1.3563493630    1.9314402600    0.2805088964
N       -0.4720842021    1.2768897609    0.7038245370
C        1.3717650019   -0.1344497332   -0.1101892166
C        0.6243682207    0.4717325710    1.1010997549
C        0.2050602784   -0.6251040651    2.0984670063
N       -0.8072116900   -0.6029908288    2.8284157455
C        0.6977360944   -0.4708862453   -1.4053177334
C        1.4624095830    0.5765320385   -1.4247489956
H        2.2157283846   -0.7398882534    0.2428729248
H        1.3346900140    1.1132479975    1.6443968636
H        0.9160595447   -1.4641544003    2.1724092770
H        0.0267949310   -1.1491668579   -1.9102880630
H        1.8943768157    1.4111278873   -1.9560779811
13   
Iteration 68 Energy -340.92260377
C       -1.3576441319    1.9305832897    0.2773236098
N       -0.4737929181    1.2765731608    0.7024287338
C        1.3733121975   -0.1320101664   -0.1088409283
C        0.6230859582    0.4725262094    1.1011315397
C        0.2029475150   -0.6263097242    2.0972405131
N       -0.7919682764   -0.5893714529    2.8499715880
C        0.7015756694   -0.4728649248   -1.4040525369
C        1.4625333701    0.5772317340   -1.4243822724
H        2.2191230862   -0.7340555630    0.2457751151
H        1.3314263470    1.1146624092    1.6460999573
H        0.8971586052   -1.4808967327    2.1480048842
H        0.0335014801   -1.1542186999   -1.9086986269
H        1.8920847108    1.4124805920   -1.9566285607
13   
Iteration 67 Energy -340.92250732
C       -1.3585998518    1.9299725458    0.2751734185
N       -0.4749097748    1.2764516164    0.7014336647
C        1.3745292349   -0.1301445843   -0.1077952858
C        0.6222897711    0.4732508481    1.1012107012
C        0.2014012782   -0.6272024965    2.0961789505
N       -0.7807218181   -0.5801519944    2.8648811012
C        0.7042888252   -0.4743214894   -1.4029366340
C        1.4626071066    0.5776598560   -1.4241483257
H        2.2216678653   -0.7297329504    0.2479326137
H        1.3291878784    1.1157890401    1.6474260262
H        0.8830144076   -1.4926066984    2.1304069820
H        0.0382042694   -1.1579241507   -1.9071776692
H        1.8903844213    1.4132905888   -1.9572125276
13   
Iteration 66 Energy -340.92243834
C       -1.3592969841    1.9295320723    0.2737000337
N       -0.4756472058    1.2764224775    0.7007165501
C        1.3754554368   -0.1287638299   -0.1070141171
C        0.6217773000    0.4738281335    1.1012943780
C        0.2003146482   -0.6278419906    2.0953626023
N       -0.7725295816   -0.5738223287    2.8752573151
C        0.7061998650   -0.4753777493   -1.4020422936
C        1.4626578936    0.5779223933   -1.4239979736
H        2.2235382254   -0.7265929441    0.2494982409
H        1.3275662722    1.1166636168    1.6484755765
H        0.8726486325   -1.5008200446    2.1177658331
H        0.0414954414   -1.1605953430   -1.9059180369
H        1.8891636697    1.4137756680   -1.9577250927
13   
Iteration 65 Energy -340.92238918
C       -1.3597954542    1.9292099310    0.2726782816
N       -0.4761390257    1.2764273645    0.7002010285
C        1.3761481350   -0.1277671566   -0.1064475659
C        0.6214422083    0.4742518500    1.1013629447
C        0.1995660765   -0.6282776120    2.0947839162
N       -0.7665957106   -0.5694070693    2.8825504458
C        0.7075514131   -0.4761412796   -1.4013671763
C        1.4626926178    0.5780865856   -1.4239007352
H        2.2249033293   -0.7243365444    0.2506119286
H        1.3263426339    1.1173344261    1.6493087641
H        0.8651180594   -1.5066155438    2.1086814214
H        0.0438151948   -1.1625098495   -1.9049567056
H        1.8882941358    1.4140750293   -1.9581335321
13   
Iteration 64 Energy -340.92235419
C       -1.3601475771    1.9289732293    0.2719649934
N       -0.4764715124    1.2764398950    0.6998340186
C        1.3766586563   -0.1270575834   -0.1060430442
C        0.6212227752    0.4745510387    1.1014128509
C        0.1990503839   -0.6285666708    2.0943868683
N       -0.7623192117   -0.5663019706    2.8877052655
C        0.7085100531   -0.4766915754   -1.4008735543
C        1.4627159749    0.5781923720   -1.4238367219
H        2.2258936086   -0.7227252806    0.2513966415
H        1.3254185472    1.1178408154    1.6499538786
H        0.8596785999   -1.5107137635    2.1021662641
H        0.0454578372   -1.1638780242   -1.9042524085
H        1.8876754782    1.4142676494   -1.9584420363
13   
Iteration 63 Energy -340.92232933
C       -1.3603962996    1.9287997206    0.2714653245
N       -0.4766998314    1.2764513361    0.6995742332
C        1.3770304222   -0.1265551818   -0.1057554805
C        0.6210783528    0.4747614162    1.1014484105
C        0.1986934417   -0.6287575628    2.0941160836
N       -0.7592536007   -0.5641125758    2.8913528729
C        0.7091901541   -0.4770864574   -1.4005177807
C        1.4627313515    0.5782623023   -1.4237931938
H        2.2266073340   -0.7215788041    0.2519487735
H        1.3247348411    1.1182173742    1.6504368500
H        0.8557696304   -1.5136141130    2.0975102115
H        0.0466224467   -1.1648531007   -1.9037452765
H        1.8872353704    1.4143957772   -1.9586680125
13   
Iteration 62 Energy -340.92231171
C       -1.3605720512    1.9286731556    0.2711150329
N       -0.4768583726    1.2764598028    0.6993912861
C        1.3772987321   -0.1262007466   -0.1055515735
C        0.6209832180    0.4749096707    1.1014741430
C        0.1984461157   -0.6288848459    2.0939310831
N       -0.7570656552   -0.5625682509    2.8939325696
C        0.7096720091   -0.4773688248   -1.4002632675
C        1.4627412223    0.5783092577   -1.4237626700
H        2.2271190637   -0.7207653070    0.2523376667
H        1.3242370484    1.1184958266    1.6507896604
H        0.8529718463   -1.5156657131    2.0941928004
H        0.0474478423   -1.1655462873   -1.9033835004
H        1.8869225943    1.4144823933   -1.9588302151
13   
Iteration 61 Energy -340.92229924
C       -1.3606988115    1.9285807728    0.2708686254
N       -0.4769711985    1.2764655595    0.6992626431
C        1.3774926978   -0.1259501846   -0.1054051788
C        0.6209191644    0.4750178704    1.1014955482
C        0.1982763480   -0.6289672734    2.0938069039
N       -0.7555092527   -0.5614774832    2.8957562746
C        0.7100130624   -0.4775706384   -1.4000808573
C        1.4627464775    0.5783412268   -1.4237397392
H        2.2274861349   -0.7201872828    0.2526124859
H        1.3238844150    1.1187028860    1.6510380116
H        0.8509705995   -1.5171271160    2.0918289826
H        0.0480336178   -1.1660398560   -1.9031260442
H        1.8867003588    1.4145416500   -1.9589446401
13   
Iteration 60 Energy -340.92229041
C       -1.3607905981    1.9285126461    0.2706960782
N       -0.4770510444    1.2764683242    0.6991732011
C        1.3776333964   -0.1257732412   -0.1053001525
C        0.6208762784    0.4750956518    1.1015129229
C        0.1981629647   -0.6290211806    2.0937251724
N       -0.7544023123   -0.5607081094    2.8970457241
C        0.7102544273   -0.4777150498   -1.3999505492
C        1.4627486165    0.5783629192   -1.4237227330
H        2.2277523541   -0.7197784020    0.2528056525
H        1.3236341530    1.1188557046    1.6512144791
H        0.8495339266   -1.5181593026    2.0901415676
H        0.0484492967   -1.1663917275   -1.9029435186
H        1.8865421542    1.4145818985   -1.9590248288
13   
Iteration 59 Energy -340.92228417
C       -1.3608564484    1.9284630879    0.2705756976
N       -0.4771050236    1.2764687117    0.6991116590
C        1.3777351557   -0.1256485809   -0.1052260227
C        0.6208471652    0.4751484213    1.1015251843
C        0.1980888197   -0.6290595682    2.0936705673
N       -0.7536142463   -0.5601670340    2.8979576816
C        0.7104251103   -0.4778182720   -1.3998583034
C        1.4627494545    0.5783775166   -1.4237114031
H        2.2279465125   -0.7194909320    0.2529398717
H        1.3234519469    1.1189650769    1.6513447256
H        0.8485014972   -1.5188760277    2.0889393634
H        0.0487440404   -1.1666412509   -1.9028138744
H        1.8864296292    1.4146089824   -1.9590821311
13   
Iteration 58 Energy -340.92227975
C       -1.3608974966    1.9284297538    0.2704920397
N       -0.4771384277    1.2764726739    0.6990690027
C        1.3778085185   -0.1255629269   -0.1051752641
C        0.6208324580    0.4751803290    1.1015309941
C        0.1980431557   -0.6290813123    2.0936369575
N       -0.7530529285   -0.5597814873    2.8986040536
C        0.7105446784   -0.4778941460   -1.3997920922
C        1.4627505094    0.5783837620   -1.4237049808
H        2.2280854768   -0.7192888014    0.2530329319
H        1.3232918468    1.1190537448    1.6514619534
H        0.8477740522   -1.5193844943    2.0880658089
H        0.0489498033   -1.1668189932   -1.9027219316
H        1.8863519669    1.4146220291   -1.9591264574
13   
Iteration 57 Energy -340.92227663
C       -1.3609216321    1.9284072702    0.2704341652
N       -0.4771591701    1.2764784694    0.6990391275
C        1.3778607972   -0.1255044604   -0.1051409353
C        0.6208268044    0.4751989314    1.1015329094
C        0.1980148001   -0.6290933492    2.0936160296
N       -0.7526535389   -0.5595069354    2.8990618500
C        0.7106284161   -0.4779496612   -1.3997448351
C        1.4627517799    0.5783853440   -1.4237015576
H        2.2281837650   -0.7191467144    0.2530979647
H        1.3231563215    1.1191249564    1.6515618196
H        0.8472636409   -1.5197457168    2.0874337345
H        0.0490932863   -1.1669450049   -1.9026570394
H        1.8862983428    1.4146270022   -1.9591602174
13   
Iteration 56 Energy -340.92227441
C       -1.3609344860    1.9283929317    0.2703934369
N       -0.4771727749    1.2764862367    0.6990173146
C        1.3778975801   -0.1254643550   -0.1051175238
C        0.6208259234    0.4752102626    1.1015327519
C        0.1979955569   -0.6290975042    2.0936031027
N       -0.7523711995   -0.5593095036    2.8993859242
C        0.7106869625   -0.4779899332   -1.3997108661
C        1.4627532625    0.5783845411   -1.4236997269
H        2.2282510837   -0.7190456251    0.2531441835
H        1.3230441900    1.1191821745    1.6516434891
H        0.8469130075   -1.5200118458    2.0869780273
H        0.0491927091   -1.1670344776   -1.9026114301
H        1.8862617980    1.4146272292   -1.9591856678
13   
Iteration 55 Energy -340.92227284
C       -1.3609402278    1.9283851392    0.2703635772
N       -0.4771825854    1.2764960882    0.6990003934
C        1.3779231053   -0.1254363071   -0.1051009693
C        0.6208267820    0.4752185911    1.1015317523
C        0.1979800791   -0.6290943853    2.0935954635
N       -0.7521736504   -0.5591651922    2.8996149323
C        0.7107279251   -0.4780186671   -1.3996860203
C        1.4627549968    0.5783827703   -1.4236985425
H        2.2282945964   -0.7189719837    0.2531775484
H        1.3229531029    1.1192280213    1.6517076159
H        0.8466813199   -1.5202200596    2.0866512557
H        0.0492606867   -1.1670985239   -1.9025795806
H        1.8862374826    1.4146246399   -1.9592044103
13   
Iteration 54 Energy -340.92227173
C       -1.3609418544    1.9283825556    0.2703405679
N       -0.4771902699    1.2765075316    0.6989865925
C        1.3779405212   -0.1254161475   -0.1050886833
C        0.6208276713    0.4752261553    1.1015305800
C        0.1979656471   -0.6290852708    2.0935912789
N       -0.7520374667   -0.5590578918    2.8997761686
C        0.7107566304   -0.4780386560   -1.3996674868
C        1.4627569813    0.5783808921   -1.4236974932
H        2.2283202209   -0.7189168974    0.2532019960
H        1.3228804216    1.1192645419    1.6517560832
H        0.8465371164   -1.5203922362    2.0864189902
H        0.0493060545   -1.1671450353   -1.9025577633
H        1.8862219394    1.4146205896   -1.9592178150
13   
Iteration 53 Energy -340.92227094
C       -1.3609415506    1.9283835007    0.2703222657
N       -0.4771965556    1.2765192456    0.6989751330
C        1.3779521129   -0.1254013124   -0.1050792859
C        0.6208277252    0.4752335553    1.1015295316
C        0.1979514305   -0.6290729707    2.0935889400