13   
Iteration 0 Energy -340.91834814
C       -2.4705157139    0.8064672621   -0.8768558928
N       -1.5274973015    0.6340051477   -0.1919698933
C        0.7460163952   -0.3283172094   -0.2539062934
C       -0.3624907496    0.3737975175    0.5838230615
C       -0.7070137230   -0.4792819650    1.8307767840
N       -1.6068259410   -0.2193101086    2.6536314770
C        0.6852854299   -0.3736329538   -1.7513519047
C        1.5699805163    0.4281820730   -1.2476882978
H        1.1997966730   -1.1620782331    0.2934531432
H        0.0053942902    1.3418424419    0.9485878799
H       -0.0723048459   -1.3667736593    1.9807993988
H        0.1855114530   -0.8152585246   -2.6003357469
H        2.3548909712    1.1606227300   -1.3689204559
13   
Iteration 1 Energy -340.91843482
C       -2.4571663089    0.8026610976   -0.8862485807
N       -1.5196581702    0.6256930634   -0.1939409653
C        0.7495324438   -0.3305083400   -0.2547957279
C       -0.3575373082    0.3670352775    0.5857609125
C       -0.7085092641   -0.4799160832    1.8347455407
N       -1.6072482631   -0.2038349227    2.6536843154
C        0.6818212757   -0.3699006852   -1.7520548760
C        1.5663786243    0.4336169438   -1.2498310891
H        1.2076169971   -1.1645216271    0.2883929128
H        0.0108637553    1.3344430944    0.9507648372
H       -0.0837881850   -1.3740753718    1.9901373108
H        0.1793241233   -0.8093821508   -2.6000684672
H        2.3470977445    1.1694870220   -1.3738224358
13   
Iteration 2 Energy -340.91850121
C       -2.4328764875    0.8108279256   -0.9019769990
N       -1.5091784841    0.6182237618   -0.1952730589
C        0.7576967272   -0.3320136693   -0.2544025076
C       -0.3498991915    0.3596180114    0.5886647561
C       -0.7063079794   -0.4841322263    1.8374860253
N       -1.5999027808   -0.1947610602    2.6576694229
C        0.6788845276   -0.3699390091   -1.7515107630
C        1.5600157385    0.4409706055   -1.2554782844
H        1.2244013280   -1.1624304071    0.2867348263
H        0.0174648821    1.3266376526    0.9553129846
H       -0.0936031070   -1.3869355801    1.9927367356
H        0.1728153450   -0.8115364755   -2.5960410783
H        2.3316241083    1.1845723920   -1.3884478788
13   
Iteration 3 Energy -340.91858066
C       -2.4115890290    0.8375120915   -0.9091117919
N       -1.4990106557    0.6273794800   -0.1929829379
C        0.7659085750   -0.3270922186   -0.2504902428
C       -0.3439385016    0.3593935850    0.5938731575
C       -0.7078728420   -0.4929843480    1.8344622737
N       -1.6020415041   -0.2052642023    2.6546733800
C        0.6760241353   -0.3829194046   -1.7466788032
C        1.5494722263    0.4455404263   -1.2663985606
H        1.2468227075   -1.1451643214    0.2969358739
H        0.0238934553    1.3227052646    0.9697903896
H       -0.1010205726   -1.4007291963    1.9840290515
H        0.1686721624   -0.8392363354   -2.5825390555
H        2.3084057506    1.1990842681   -1.4153677946
13   
Iteration 4 Energy -340.91870031
C       -2.3916388838    0.8685264971   -0.9110003431
N       -1.4864235226    0.6444478074   -0.1897253318
C        0.7745748305   -0.3191236598   -0.2445767411
C       -0.3376812168    0.3616931148    0.6007972276
C       -0.7127132098   -0.5050293720    1.8282408001
N       -1.6073823783   -0.2213046218    2.6493025434
C        0.6726169994   -0.4025722747   -1.7388644298
C        1.5353838556    0.4491624270   -1.2803905991
H        1.2744870859   -1.1189613306    0.3128397486
H        0.0322046026    1.3185435607    0.9910496917
H       -0.1140116044   -1.4198954540    1.9669035686
H        0.1659837703   -0.8807478234   -2.5628591414
H        2.2787705822    1.2138384400   -1.4496609778
13   
Iteration 5 Energy -340.91884436
C       -2.3726381617    0.9019331769   -0.9105741045
N       -1.4738354560    0.6642695148   -0.1856663386
C        0.7821991525   -0.3106915986   -0.2371230059
C       -0.3325254535    0.3646013052    0.6087275005
C       -0.7203974914   -0.5174422166    1.8213372087
N       -1.6197733018   -0.2411082972    2.6397718519
C        0.6691304880   -0.4232886783   -1.7288277860
C        1.5203201050    0.4517549039   -1.2930312274
H        1.3012333498   -1.0908884488    0.3307509851
H        0.0401547329    1.3138239329    1.0148244165
H       -0.1268066346   -1.4369231937    1.9511800162
H        0.1646337104   -0.9244504801   -2.5403955330
H        2.2479379262    1.2266434776   -1.4830845088
13   
Iteration 6 Energy -340.91900324
C       -2.3535064047    0.9349555588   -0.9100491743
N       -1.4608929408    0.6839523818   -0.1819936788
C        0.7905707012   -0.3015955427   -0.2296336885
C       -0.3272563072    0.3673829118    0.6162824083
C       -0.7284875941   -0.5304047502    1.8131905668
N       -1.6314240256   -0.2605372757    2.6298570378
C        0.6683282661   -0.4430836725   -1.7182628233
C        1.5068216504    0.4547120324   -1.3044759035
H        1.3282074167   -1.0616272856    0.3483998153
H        0.0476497028    1.3086317222    1.0387045011
H       -0.1416957353   -1.4556318054    1.9326248518
H        0.1676630508   -0.9672201476   -2.5176244295
H        2.2186612285    1.2390457653   -1.5144655337
13   
Iteration 7 Energy -340.91917430
C       -2.3341231555    0.9674664499   -0.9099972357
N       -1.4477178848    0.7034480857   -0.1789635489
C        0.7993830657   -0.2918539538   -0.2225453545
C       -0.3218228979    0.3704351677    0.6230565900
C       -0.7361141857   -0.5431022570    1.8037986948
N       -1.6417796305   -0.2793780100    2.6194382930
C        0.6690516881   -0.4622926489   -1.7075136297
C        1.4940283300    0.4577763650   -1.3158194727
H        1.3551375395   -1.0312060191    0.3653220158
H        0.0547751574    1.3035967343    1.0617082818
H       -0.1567422455   -1.4744005660    1.9116290682
H        0.1732649796   -1.0093723189   -2.4944768870
H        2.1899288406    1.2508418652   -1.5454873585
13   
Iteration 8 Energy -340.91935573
C       -2.3154847076    1.0000016256   -0.9097710320
N       -1.4352737972    0.7229974756   -0.1760623732
C        0.8075401333   -0.2817291060   -0.2158624981
C       -0.3170292605    0.3738193356    0.6292650667
C       -0.7438149102   -0.5550669472    1.7937585260
N       -1.6532372337   -0.2984911484    2.6074873428
C        0.6697216155   -0.4816958810   -1.6964717341
C        1.4804336924    0.4603164537   -1.3275770359
H        1.3810949670   -0.9997273749    0.3815437863
H        0.0610629299    1.2988024093    1.0837824304
H       -0.1703572010   -1.4911987024    1.8907523653
H        0.1795498695   -1.0518703303   -2.4704846163
H        2.1600905618    1.2613881877   -1.5772029892
13   
Iteration 9 Energy -340.91954427
C       -2.2979304732    1.0314099192   -0.9092115294
N       -1.4236460843    0.7418014172   -0.1732761624
C        0.8153065688   -0.2712935876   -0.2099234938
C       -0.3127201548    0.3770168674    0.6348050237
C       -0.7513224017   -0.5671037699    1.7828894980
N       -1.6631183171   -0.3170044769    2.5959647303
C        0.6705956022   -0.5010397317   -1.6855225739
C        1.4660574896    0.4626256752   -1.3399111407
H        1.4066239344   -0.9671732379    0.3965224113
H        0.0664379986    1.2937710183    1.1049192786
H       -0.1846999871   -1.5085603625    1.8676289248
H        0.1868420863   -1.0943293909   -2.4461198402
H        2.1289445495    1.2711921106   -1.6096198436
13   
Iteration 10 Energy -340.91973705
C       -2.2811576090    1.0628803277   -0.9079589927
N       -1.4128339987    0.7606669041   -0.1700298057
C        0.8221273327   -0.2608053044   -0.2039635833
C       -0.3092962291    0.3800297247    0.6404114207
C       -0.7595173952   -0.5794045610    1.7715128668
N       -1.6735101755   -0.3360432600    2.5841508413
C        0.6710494556   -0.5200408230   -1.6740282747
C        1.4507642662    0.4644246740   -1.3517925459
H        1.4308005947   -0.9342012123    0.4108863111
H        0.0708373357    1.2881380353    1.1263197455
H       -0.1996132380   -1.5259243972    1.8433840953
H        0.1942246380   -1.1359397142   -2.4209468435
H        2.0967241289    1.2797542626   -1.6414307397
13   
Iteration 11 Energy -340.91993103
C       -2.2648672776    1.0954937990   -0.9057303513
N       -1.4027819464    0.7800537381   -0.1660185228
C        0.8278325005   -0.2505229000   -0.1974598902
C       -0.3070115535    0.3827070261    0.6464885197
C       -0.7692172002   -0.5921806431    1.7597193130
N       -1.6867810534   -0.3566851585    2.5706359151
C        0.6712239761   -0.5387887074   -1.6615515824
C        1.4348403774    0.4654779216   -1.3624742166
H        1.4531674240   -0.9013152613    0.4252040209
H        0.0741667498    1.2814987171    1.1487059762
H       -0.2147985700   -1.5427544250    1.8194014355
H        0.2018844888   -1.1766245245   -2.3947211646
H        2.0639670980    1.2867696442   -1.6716149515
13   
Iteration 12 Energy -340.92012191
C       -2.2486862668    1.1285761482   -0.9026597586
N       -1.3930790268    0.7993813676   -0.1614137559
C        0.8331024763   -0.2405160598   -0.1903946440
C       -0.3053546406    0.3848964374    0.6529222802
C       -0.7797918007   -0.6053916088    1.7475902008
N       -1.7019465782   -0.3784762120    2.5557279508
C        0.6719895622   -0.5575465784   -1.6480437034
C        1.4189389428    0.4657664423   -1.3720103861
H        1.4744354559   -0.8685224157    0.4395843809
H        0.0766953957    1.2739061562    1.1716926541
H       -0.2300125911   -1.5592980592    1.7956389692
H        0.2108279304   -1.2168037972   -2.3673760327
H        2.0312256465    1.2923443347   -1.7002313648
13   
Iteration 13 Energy -340.92030503
C       -2.2324842348    1.1611172115   -0.8988446332
N       -1.3833721088    0.8181828266   -0.1563527509
C        0.8385751415   -0.2305892505   -0.1829497698
C       -0.3036472745    0.3869023345    0.6595287543
C       -0.7899898086   -0.6183372940    1.7355221906
N       -1.7173279633   -0.4003789470    2.5401745960
C        0.6736949863   -0.5765291379   -1.6335417288
C        1.4033586868    0.4652239137   -1.3809527802
H        1.4953991588   -0.8354628296    0.4538831620
H        0.0789144999    1.2660610228    1.1945217984
H       -0.2440398960   -1.5749164230    1.7725303842
H        0.2212464422   -1.2568992657   -2.3386641440
H        1.9986448982    1.2964062270   -1.7282057119
13   
Iteration 14 Energy -340.92047822
C       -2.2161597904    1.1928235716   -0.8942148586
N       -1.3733329283    0.8365072074   -0.1508551360
C        0.8446914865   -0.2204221234   -0.1755267151
C       -0.3013199617    0.3890190878    0.6661344815
C       -0.7989191592   -0.6307034460    1.7235452320
N       -1.7313748106   -0.4217434510    2.5246509560
C        0.6763299102   -0.5956461961   -1.6183330509
C        1.3880815158    0.4639825607   -1.3899663667
H        1.5167781702   -0.8016124458    0.4676044101
H        0.0813916943    1.2583597943    1.2168780614
H       -0.2563979379   -1.5895751441    1.7496201757
H        0.2329298852   -1.2969506338   -2.3085957197
H        1.9660172093    1.2990759183   -1.7565380694
13   
Iteration 15 Energy -340.92063911
C       -2.1996479089    1.2240682150   -0.8886381104
N       -1.3627824055    0.8546534800   -0.1449282576
C        0.8515251527   -0.2099008305   -0.1687559843
C       -0.2981346996    0.3911818079    0.6724897353
C       -0.8063483297   -0.6428575500    1.7111502856
N       -1.7432754292   -0.4427747000    2.5092876293
C        0.6796756499   -0.6142082372   -1.6031891008
C        1.3730433285    0.4625189691   -1.3994500101
H        1.5387358377   -0.7670814512    0.4798001566
H        0.0845264582    1.2504923206    1.2388104632
H       -0.2673803106   -1.6039560497    1.7256322500
H        0.2454727353   -1.3359597358   -2.2781099846
H        1.9333021895    1.3008997274   -1.7853744221
13   
Iteration 16 Energy -340.92078534
C       -2.1828271350    1.2556285762   -0.8818781245
N       -1.3516484923    0.8728593190   -0.1385363703
C        0.8589656557   -0.1991881157   -0.1631939084
C       -0.2941083795    0.3929572623    0.6783656127
C       -0.8124994185   -0.6556584685    1.6975734730
N       -1.7533206632   -0.4646379831    2.4933351012
C        0.6835441988   -0.6318359816   -1.5888504631
C        1.3580074580    0.4611812816   -1.4097110461
H        1.5612481761   -0.7322415754    0.4896405225
H        0.0884931662    1.2416221907    1.2605595012
H       -0.2772522837   -1.6189168120    1.6994318591
H        0.2586924899   -1.3733002423   -2.2482330068
H        1.9002062453    1.3024120034   -1.8146829095
13   
Iteration 17 Energy -340.92091505
C       -2.1653557600    1.2876745763   -0.8736070253
N       -1.3397083203    0.8907806532   -0.1315023642
C        0.8671845989   -0.1887869748   -0.1588423624
C       -0.2891144630    0.3936339101    0.6838207523
C       -0.8174190453   -0.6700587216    1.6824886291
N       -1.7618471035   -0.4886273266    2.4762074643
C        0.6881647651   -0.6494787765   -1.5752020874
C        1.3426845334    0.4593866689   -1.4209869797
H        1.5847669026   -0.6972004452    0.4971288911
H        0.0934632544    1.2308107925    1.2824196192
H       -0.2859336437   -1.6352985725    1.6706301144
H        0.2730663217   -1.4102293349   -2.2186946475
H        1.8660191490    1.3031696210   -1.8449461096
13   
Iteration 18 Energy -340.92102464
C       -2.1466540300    1.3189884040   -0.8636082979
N       -1.3265048113    0.9073695741   -0.1234240488
C        0.8767750250   -0.1794895363   -0.1545723402
C       -0.2828016321    0.3925148150    0.6895725880
C       -0.8208659217   -0.6865028211    1.6667538622
N       -1.7688185759   -0.5150989957    2.4584838211
C        0.6944947518   -0.6686440111   -1.5609047535
C        1.3276567250    0.4558084778   -1.4323783192
H        1.6098718257   -0.6623065536    0.5036677373
H        0.0995676285    1.2175492621    1.3048982551
H       -0.2931119044   -1.6534711987    1.6404143403
H        0.2897759318   -1.4485923963   -2.1878777375
H        1.8311094717    1.3017468990   -1.8756062630
13   
Iteration 19 Energy -340.92110438
C       -2.1274300792    1.3468162314   -0.8522849769
N       -1.3125032915    0.9214035565   -0.1141292484
C        0.8876213249   -0.1717960573   -0.1489389274
C       -0.2753292766    0.3900484605    0.6964825125
C       -0.8225341243   -0.7031430936    1.6529918797
N       -1.7739930797   -0.5412920125    2.4425101082
C        0.7030003758   -0.6875287917   -1.5454126496
C        1.3153147125    0.4508814990   -1.4410509520
H        1.6349202994   -0.6302261441    0.5108038691
H        0.1063928402    1.2034082223    1.3275004458
H       -0.2980862894   -1.6714120956    1.6130369001
H        0.3084294198   -1.4850086314   -2.1566664084
H        1.7997106109    1.2983519623   -1.9021553565
13   
Iteration 20 Energy -340.92116044
C       -2.1060446416    1.3744965355   -0.8365059277
N       -1.2960988202    0.9351105422   -0.1010549817
C        0.9010781983   -0.1638748084   -0.1411317212
C       -0.2651366580    0.3870463730    0.7062669295
C       -0.8210184296   -0.7204978428    1.6414045037
N       -1.7760691805   -0.5687758564    2.4285832197
C        0.7141148137   -0.7054533817   -1.5274563437
C        1.3048769728    0.4462027725   -1.4471013260
H        1.6625510361   -0.5978133101    0.5189678057
H        0.1157721422    1.1881794516    1.3531522762
H       -0.2994350212   -1.6896048856    1.5875034762
H        0.3298019853   -1.5197490405   -2.1229356357
H        1.7696271416    1.2949293878   -1.9256982895
13   
Iteration 21 Energy -340.92119170
C       -2.0804147891    1.4043694473   -0.8052552915
N       -1.2725782956    0.9501810770   -0.0765039962
C        0.9220576935   -0.1532670009   -0.1322321015
C       -0.2445234374    0.3847103259    0.7224408593
C       -0.8050917323   -0.7383610427    1.6364082088
N       -1.7613793263   -0.5984745446    2.4242712200
C        0.7282243234   -0.7191155093   -1.5078571492
C        1.2960830812    0.4454351611   -1.4525332335
H        1.7003111358   -0.5625464749    0.5239972470
H        0.1375087146    1.1725213573    1.3847670144
H       -0.2856139205   -1.7074923419    1.5658466899
H        0.3528225082   -1.5493816160   -2.0867993908
H        1.7382854506    1.2958062868   -1.9491422776
13   
Iteration 22 Energy -340.92119785
C       -1.9236176402    1.6162492711   -0.2340382006
N       -1.0454222773    1.0817141567    0.3430671102
C        1.0555572888   -0.1167009820   -0.0896731887
C        0.0564261146    0.4266269644    0.9528992328
C       -0.4234900295   -0.7165142594    1.8879144277
N       -1.2539028938   -0.5771729028    2.8075950939
C        0.6260012507   -0.6483185432   -1.4249140782
C        1.2242021065    0.5020449315   -1.4429506166
H        1.9192899351   -0.5577756537    0.4231851779
H        0.5728257370    1.1588296021    1.5873394058
H        0.0371309094   -1.7003895605    1.7041631530
H        0.1404284384   -1.4572926007   -1.9495686743
H        1.6023640078    1.3524827622   -1.9896959071
13   
Iteration 23 Energy -340.92119995
C       -1.4079949971    1.8765345502    0.2852957658
N       -0.5014441164    1.2571638857    0.7149289557
C        1.4183658494   -0.0709844261   -0.0536285209
C        0.6187380527    0.4951789607    1.1389750029
C        0.1839490325   -0.6521855461    2.0904643957
N       -0.5015865933   -0.4978012105    3.1205112857
C        0.7724144718   -0.4808508178   -1.3439618545
C        1.4693958571    0.6118470854   -1.3851902429
H        2.2960648742   -0.6152849672    0.3163641111
H        1.2739764295    1.1572439501    1.7201113424
H        0.5403451782   -1.6566032725    1.8108834509
H        0.1498090470   -1.2116557636   -1.8376725803
H        1.8528492073    1.4578335726   -1.9352106059
13   
Iteration 24 Energy -340.92119853
C       -1.4195803735    1.7848798084    0.3495507869
N       -0.4887612340    1.1657670118    0.7240653190
C        1.4101928711   -0.1211698619   -0.1565706681
C        0.6570732247    0.4080436738    1.0818240369
C        0.2753180846   -0.7658776591    2.0239117652
N       -0.3582959528   -0.6402136336    3.0904620160
C        0.7116623894   -0.5204965652   -1.4225194810
C        1.3864687364    0.5855244784   -1.4765007270
H        2.3133221494   -0.6561229054    0.1625866803
H        1.3298093152    1.0643536096    1.6492029422
H        0.6195075284   -1.7613710870    1.7006029323
H        0.0785166723   -1.2530961232   -1.8999041390
H        1.7278756600    1.4481580931   -2.0283470721
13   
Iteration 25 Energy -340.92119891
C       -1.4064557770    1.8743783567    0.2840755691
N       -0.4991363881    1.2554782795    0.7126794110
C        1.4214960791   -0.0702885724   -0.0562090902
C        0.6213509836    0.4939684860    1.1364554975
C        0.1858367708   -0.6547716761    2.0860290073
N       -0.4951269078   -0.4998312496    3.1190337849
C        0.7750954307   -0.4827915975   -1.3454068735
C        1.4693379841    0.6116266337   -1.3883979241
H        2.3005931938   -0.6124935347    0.3137950625
H        1.2761682014    1.1556735925    1.7183933682
H        0.5351413447   -1.6602086308    1.8012391634
H        0.1530432748   -1.2148743308   -1.8379261425
H        1.8494766074    1.4583432107   -1.9395902674
13   
Iteration 26 Energy -340.92119815
C       -1.4009732015    1.8764546599    0.2851596726
N       -0.4935907884    1.2562748625    0.7117634341
C        1.4245885331   -0.0707923582   -0.0609080175
C        0.6266136599    0.4930735165    1.1332998831
C        0.1906340380   -0.6565548370    2.0817298826
N       -0.4832132157   -0.5010595559    3.1192955290
C        0.7752387501   -0.4858248615   -1.3478664476
C        1.4676763039    0.6095953082   -1.3940778151
H        2.3053881252   -0.6114050641    0.3073620512
H        1.2828209056    1.1532119452    1.7153785621
H        0.5325556512   -1.6629498675    1.7914706644
H        0.1527171317   -1.2191604766   -1.8379370844
H        1.8448269483    1.4563475625   -1.9472578892
13   
Iteration 27 Energy -340.92119792
C       -1.3921647681    1.8812715372    0.2896783335
N       -0.4851886808    1.2582477418    0.7130017263
C        1.4256593246   -0.0751674453   -0.0667470718
C        0.6340845007    0.4913976863    1.1304236383
C        0.1976218523   -0.6568184419    2.0804129243
N       -0.4686685589   -0.4984693699    3.1224123810
C        0.7696906133   -0.4896697834   -1.3505165765
C        1.4644725797    0.6040953275   -1.4006297445
H        2.3068024843   -0.6175420839    0.2980849855
H        1.2946379647    1.1493264787    1.7100370101
H        0.5317487013   -1.6648659660    1.7868329021
H        0.1432029740   -1.2218541689   -1.8372461401
H        1.8411383634    1.4495594559   -1.9561045070
13   
Iteration 28 Energy -340.92119789
C       -1.3842378905    1.9012716867    0.2489488909
N       -0.4855209443    1.2720196294    0.6805970998
C        1.4134266562   -0.0880930016   -0.0819133519
C        0.6238791128    0.4963623985    1.1079798054
C        0.1715213041   -0.6395092950    2.0653529050
N       -0.4958442831   -0.4655184808    3.1041680304
C        0.7574931877   -0.5056460633   -1.3647188438
C        1.4641625333    0.5801749914   -1.4209462972
H        2.2874224458   -0.6369909115    0.2902708077
H        1.2895354384    1.1515695763    1.6848305272
H        0.4947995597   -1.6535672768    1.7804588525
H        0.1248725741   -1.2348739542   -1.8479443268
H        1.8518339190    1.4171308321   -1.9817110835
