13   
Climbing Image - Chain 28 Image 8 Energy  -340.9150907902 (+26.048 kcal/mol) RMSGrad 0.027 eV/Ang
C       -1.2142443934    1.3585652150    0.6484812025
N       -1.6259864709    2.4596590113    0.4270869951
C        0.8876761035    0.3098094466   -0.4262530352
C       -0.0221210667    0.3931939323    0.7999236496
C       -1.0096741663   -0.7108876400    1.0346594106
N       -2.1479214707   -0.1328280522    0.9568881182
C        1.4329720456   -1.0063057031   -0.9162056763
C        0.5016999102   -0.4780956892   -1.6485844869
H        1.4834329718    1.2208252983   -0.5450944565
H        0.5567665484    0.6555431650    1.6972205018
H       -0.8607595060   -1.7719983344    1.2327716397
H        2.1449494435   -1.7979267534   -0.7359754170
H       -0.1276544434   -0.4988575973   -2.5252454795
