13   
IRC product Energy -341.00780108
C       -3.6769091238    0.4084653752    1.6798675571
N       -4.3918539948    1.3126295784    1.8838102644
C        0.3037245314    0.5264220455    0.3231769417
C       -1.0081448856    0.5095461925    0.6753551367
C       -1.7519440102   -0.6716600774    1.0523672945
N       -2.9742180489   -0.7122105650    1.4904274169
C        1.2052653167   -1.7254201619    0.9605144680
C        1.2704470727   -0.5746206296    0.3088015205
H        0.7087369832    1.4815138714   -0.0043918057
H       -1.5608639493    1.4458509497    0.6499661724
H       -1.2640887146   -1.6401446315    0.9477737993
H        1.8227542592   -2.6065821770    1.0738380722
H        2.1671088978   -0.3885531136   -0.2958417738
