13   
Iteration 0 Energy -341.00780108
C       -3.6769091238    0.4084653752    1.6798675571
N       -4.3918539948    1.3126295784    1.8838102644
C        0.3037245314    0.5264220455    0.3231769417
C       -1.0081448856    0.5095461925    0.6753551367
C       -1.7519440102   -0.6716600774    1.0523672945
N       -2.9742180489   -0.7122105650    1.4904274169
C        1.2052653167   -1.7254201619    0.9605144680
C        1.2704470727   -0.5746206296    0.3088015205
H        0.7087369832    1.4815138714   -0.0043918057
H       -1.5608639493    1.4458509497    0.6499661724
H       -1.2640887146   -1.6401446315    0.9477737993
H        1.8227542592   -2.6065821770    1.0738380722
H        2.1671088978   -0.3885531136   -0.2958417738
13   
Iteration 1 Energy -341.00779866
C       -3.6737519932    0.4035215077    1.6844383665
N       -4.3899402080    1.3054201731    1.8939517291
C        0.3049445883    0.5298374324    0.3206955572
C       -1.0070543512    0.5132061999    0.6721094516
C       -1.7481323035   -0.6700462549    1.0480568557
N       -2.9692818515   -0.7149316200    1.4887548349
C        1.1959237485   -1.7228503355    0.9648455459
C        1.2676646701   -0.5746224138    0.3093072043
H        0.7119231654    1.4839308412   -0.0074328836
H       -1.5606896801    1.4489969476    0.6472802000
H       -1.2580937985   -1.6371524942    0.9409384082
H        1.8088390108   -2.6067046286    1.0821148752
H        2.1657786361   -0.3939929067   -0.2948062604
13   
Iteration 2 Energy -341.00780057
C       -3.6755470667    0.4055208312    1.6812713149
N       -4.3918428563    1.3082641736    1.8867420411
C        0.3045281362    0.5284952692    0.3219946604
C       -1.0072433090    0.5117549729    0.6743048016
C       -1.7492579019   -0.6706082464    1.0512025659
N       -2.9710934561   -0.7137418076    1.4901807535
C        1.1999150533   -1.7241941467    0.9620808664
C        1.2688998918   -0.5745313995    0.3087636009
H        0.7105552403    1.4830455870   -0.0059615758
H       -1.5605765574    1.4477141832    0.6492115808
H       -1.2598896096   -1.6382385312    0.9457681697
H        1.8147059731   -2.6070319952    1.0771311129
H        2.1663008562   -0.3913976847   -0.2956615007
