13   
IRC reactant Energy -341.00773360
C       -2.3690021417    1.3691806349    1.5268307373
N       -2.7234496635    2.4210193853    1.8988940499
C        1.0308252346    0.4882619442   -0.7790979816
C       -0.1194739022    0.8042630564   -0.1287879567
C       -1.0370669079   -0.1537072596    0.4467264771
N       -2.0784667469    0.1126868949    1.1767982767
C        1.5290365392   -1.8838968062   -0.1679322148
C        1.6522203330   -0.8268284500   -0.9547817208
H        1.5735490527    1.3094230037   -1.2447514057
H       -0.4033788174    1.8518744704   -0.0617619839
H       -0.8742873651   -1.2097221497    0.2369197746
H        1.9258848213   -2.8906709973   -0.1239761139
H        2.3283854673   -0.9078045359   -1.8140570801
