13   
Iteration 0 Energy -341.00773360
C       -2.3690021417    1.3691806349    1.5268307373
N       -2.7234496635    2.4210193853    1.8988940499
C        1.0308252346    0.4882619442   -0.7790979816
C       -0.1194739022    0.8042630564   -0.1287879567
C       -1.0370669079   -0.1537072596    0.4467264771
N       -2.0784667469    0.1126868949    1.1767982767
C        1.5290365392   -1.8838968062   -0.1679322148
C        1.6522203330   -0.8268284500   -0.9547817208
H        1.5735490527    1.3094230037   -1.2447514057
H       -0.4033788174    1.8518744704   -0.0617619839
H       -0.8742873651   -1.2097221497    0.2369197746
H        1.9258848213   -2.8906709973   -0.1239761139
H        2.3283854673   -0.9078045359   -1.8140570801
13   
Iteration 1 Energy -341.00763180
C       -2.3705680534    1.3388156900    1.5285854712
N       -2.7616842104    2.3813426832    1.8895830420
C        1.0436330882    0.5080125169   -0.7909122014
C       -0.1031553750    0.8248415449   -0.1371158684
C       -0.9964188157   -0.1487352677    0.4512492771
N       -2.0385110136    0.0896367777    1.1894342501
C        1.4766865983   -1.8713046770   -0.1623189721
C        1.6373215487   -0.8214355833   -0.9527968526
H        1.5943862788    1.3203889840   -1.2609836840
H       -0.3978109881    1.8697719354   -0.0723485481
H       -0.8082213495   -1.2017256152    0.2456867941
H        1.8442271080   -2.8875326203   -0.1092682339
H        2.3183069721   -0.9248566051   -1.8070555102
13   
Iteration 2 Energy -341.00773192
C       -2.3679852348    1.3532325601    1.5303788519
N       -2.7358252501    2.3994635423    1.9049168236
C        1.0364590256    0.4979222564   -0.7861275874
C       -0.1116962350    0.8150723148   -0.1343789516
C       -1.0205481615   -0.1507263653    0.4425711834
N       -2.0626590061    0.1013960808    1.1762465640
C        1.5070257342   -1.8751213492   -0.1587777116
C        1.6438988385   -0.8247342523   -0.9528810609
H        1.5829863977    1.3138894410   -1.2553754036
H       -0.3992338254    1.8617484812   -0.0666112358
H       -0.8482028745   -1.2049186308    0.2299648719
H        1.8912839083   -2.8855760104   -0.1071580670
H        2.3201157430   -0.9192620173   -1.8115686595
13   
Iteration 3 Energy -341.00775288
C       -2.3699458419    1.3619484688    1.5284500366
N       -2.7348219619    2.4110047524    1.8978696635
C        1.0340233260    0.4930874154   -0.7820836806
C       -0.1148970580    0.8097102657   -0.1313098428
C       -1.0273993640   -0.1515589473    0.4478540804
N       -2.0687255933    0.1074931401    1.1799912406
C        1.5175226217   -1.8824815075   -0.1665618556
C        1.6484683581   -0.8260126952   -0.9536872893
H        1.5786686938    1.3112689775   -1.2490644073
H       -0.4011247754    1.8568514798   -0.0649883210
H       -0.8586462488   -1.2071109955    0.2388477288
H        1.9075099817   -2.8907395520   -0.1213869107
H        2.3258704315   -0.9124806738   -1.8126300958
13   
Iteration 4 Energy -341.00777010
C       -2.3695436056    1.3678662188    1.5223552534
N       -2.7405314679    2.4209493993    1.8737566745
C        1.0326346004    0.4913516113   -0.7774519873
C       -0.1173330405    0.8051532527   -0.1272367633
C       -1.0236482682   -0.1564758424    0.4612762156
N       -2.0626552331    0.1093162495    1.1939699462
C        1.5132595271   -1.8895060112   -0.1819784960
C        1.6525467102   -0.8243950389   -0.9557341977
H        1.5759915539    1.3124905284   -1.2404191917
H       -0.4075275103    1.8514253406   -0.0638232594
H       -0.8509424326   -1.2134599029    0.2625702785
H        1.9014718288   -2.8986524431   -0.1446706677
H        2.3371263948   -0.9020533174   -1.8100634456
13   
Iteration 5 Energy -341.00777513
C       -2.3795618775    1.3702695426    1.5248642873
N       -2.7674508036    2.4223674521    1.8606014888
C        1.0357002484    0.4887314620   -0.7772196324
C       -0.1146347948    0.8044850030   -0.1287371094
C       -1.0169091682   -0.1500978359    0.4779261009
N       -2.0548624665    0.1119300423    1.2133342902
C        1.5058311656   -1.9034897864   -0.2019169606
C        1.6577742149   -0.8261874878   -0.9560741796
H        1.5791564870    1.3096241186   -1.2403954770
H       -0.4058641807    1.8508985899   -0.0735446869
H       -0.8360957246   -1.2085878065    0.2951323766
H        1.8914924468   -2.9139041128   -0.1754709848
H        2.3541852970   -0.8946996769   -1.8016610949
13   
Iteration 6 Energy -341.00778979
C       -2.3733467634    1.3705326227    1.5245689307
N       -2.7557698460    2.4235609433    1.8637054353
C        1.0326571119    0.4893052043   -0.7771519544
C       -0.1178542646    0.8047057428   -0.1286826171
C       -1.0172189642   -0.1539374940    0.4752695597
N       -2.0549166318    0.1113723317    1.2098355624
C        1.5033280984   -1.9050706237   -0.2018075069
C        1.6559678464   -0.8255537006   -0.9527608281
H        1.5740284237    1.3098956723   -1.2434272634
H       -0.4102205367    1.8507405851   -0.0720380982
H       -0.8353690928   -1.2124101960    0.2929759302
H        1.8920989535   -2.9143947877   -0.1758685155
H        2.3576557241   -0.8911885678   -1.7939949403
13   
Iteration 7 Energy -341.00779391
C       -2.3697071730    1.3688497767    1.5262691818
N       -2.7487395807    2.4220446931    1.8687813273
C        1.0320706982    0.4886848507   -0.7795758535
C       -0.1169762234    0.8023407947   -0.1271159910
C       -1.0162472070   -0.1568044853    0.4754970064
N       -2.0544786641    0.1095680063    1.2090989975
C        1.4962150901   -1.9007978978   -0.2023525271
C        1.6577700663   -0.8245941274   -0.9560976225
H        1.5696231781    1.3098501059   -1.2492570398
H       -0.4088406531    1.8483514303   -0.0682101820
H       -0.8361257754   -1.2152523448    0.2912298035
H        1.8833284389   -2.9106329703   -0.1698979009
H        2.3668638593   -0.8901144907   -1.7910956555
13   
Iteration 8 Energy -341.00780048
C       -2.3712775194    1.3702211530    1.5266002102
N       -2.7545327399    2.4236579845    1.8636350831
C        1.0316558534    0.4875215388   -0.7792220430
C       -0.1159645221    0.8023244364   -0.1246926949
C       -1.0128153496   -0.1558684372    0.4827600033
N       -2.0511520698    0.1105159385    1.2162562181
C        1.4932355351   -1.9078636132   -0.2104114801
C        1.6579254874   -0.8255739938   -0.9549773667
H        1.5677616971    1.3081833058   -1.2513307483
H       -0.4084346882    1.8483067548   -0.0680447128
H       -0.8309601995   -1.2146586411    0.3019318064
H        1.8816901083   -2.9173289034   -0.1832270778
H        2.3727626613   -0.8863827736   -1.7853338217
13   
Iteration 9 Energy -341.00780249
C       -2.3715111789    1.3714783737    1.5290346573
N       -2.7569251329    2.4251408603    1.8629026089
C        1.0309838583    0.4855852833   -0.7793551718
C       -0.1155350277    0.8013807528   -0.1231731686
C       -1.0102690012   -0.1553022021    0.4895348408
N       -2.0486925218    0.1114565398    1.2228746213
C        1.4884600659   -1.9142793199   -0.2193241518
C        1.6593406197   -0.8264658993   -0.9546040076
H        1.5655624095    1.3061639822   -1.2531863154
H       -0.4089583668    1.8472831144   -0.0697720053
H       -0.8254305398   -1.2145932119    0.3146322990
H        1.8775496434   -2.9235651011   -0.1959581893
H        2.3820567639   -0.8825371327   -1.7784419764
13   
Iteration 10 Energy -341.00780276
C       -2.3707086282    1.3718714715    1.5298364862
N       -2.7562524181    2.4259910291    1.8621129300
C        1.0308902091    0.4851882609   -0.7793303823
C       -0.1147016773    0.8003514694   -0.1211246752
C       -1.0090264126   -0.1559865196    0.4926128296
N       -2.0473168166    0.1114532364    1.2259350232
C        1.4864954338   -1.9156555089   -0.2219245547
C        1.6592399589   -0.8267011042   -0.9551506069
H        1.5645150636    1.3059764831   -1.2538836677
H       -0.4081596695    1.8462164685   -0.0674816297
H       -0.8243615302   -1.2154156928    0.3182784638
H        1.8754427537   -2.9250231113   -0.1994385891
H        2.3836259952   -0.8818927068   -1.7775648702
