13   
Climbing Image - Chain 100 Image 3 Energy  -340.9760162669 (+13.903 kcal/mol) RMSGrad 0.876 eV/Ang
C       -2.5165876875    1.5429896031    1.0983158274
N       -2.9838536449    2.6235679241    1.1481751814
C        1.1695480762    0.2829465232   -0.4889048239
C        0.0321585586    0.6470284699    0.1798748450
C       -1.1107137087   -0.1903149014    0.5077436424
N       -2.2069684557    0.2480214071    1.0258270869
C        2.1816449863   -1.5992777019   -0.5866877050
C        1.1959578618   -1.0037385406   -1.2052278158
H        2.1032316585    0.8204695257   -0.3898596931
H       -0.0425735439    1.6332282552    0.6016735445
H       -1.0173044660   -1.2910926867    0.4048658593
H        2.8063723896   -2.4282831506   -0.3875257235
H        0.3913449301   -1.2780514315   -1.9049275485
