13   
IRC product Energy -340.97576481
C       -3.0356507363    1.6308869938   -0.4353727937
N       -3.4108632278    2.7136142445   -0.6967763322
C        0.8315391406   -0.0903551275   -1.2929539810
C       -0.4786328482    0.5139068005   -1.0121129702
C       -1.5329075403   -0.1240399702   -0.3629631927
N       -2.7348137840    0.3912816597   -0.0888571685
C        1.4266182717   -1.1664000778   -0.3841622158
C        0.9868702578   -1.5948981240   -1.5160175060
H        1.5200180792    0.5781419716   -1.8134380332
H       -0.6333802578    1.5413261758   -1.3379879511
H       -1.4043092878   -1.1515088841   -0.0278681679
H        1.8623788085   -1.3213783129    0.5915056309
H        0.7706036869   -2.3855486321   -2.2188333137
