13   
Iteration 0 Energy -340.97576481
C       -3.0356507363    1.6308869938   -0.4353727937
N       -3.4108632278    2.7136142445   -0.6967763322
C        0.8315391406   -0.0903551275   -1.2929539810
C       -0.4786328482    0.5139068005   -1.0121129702
C       -1.5329075403   -0.1240399702   -0.3629631927
N       -2.7348137840    0.3912816597   -0.0888571685
C        1.4266182717   -1.1664000778   -0.3841622158
C        0.9868702578   -1.5948981240   -1.5160175060
H        1.5200180792    0.5781419716   -1.8134380332
H       -0.6333802578    1.5413261758   -1.3379879511
H       -1.4043092878   -1.1515088841   -0.0278681679
H        1.8623788085   -1.3213783129    0.5915056309
H        0.7706036869   -2.3855486321   -2.2188333137
13   
Iteration 1 Energy -340.97576503
C       -3.0354185562    1.6294473451   -0.4365580743
N       -3.4100113984    2.7121423811   -0.6989431308
C        0.8310568678   -0.0899971758   -1.2924819294
C       -0.4792849047    0.5132459619   -1.0103405333
C       -1.5331403234   -0.1254070795   -0.3611897918
N       -2.7350857136    0.3902915633   -0.0880350718
C        1.4274579974   -1.1663737821   -0.3849571951
C        0.9870510966   -1.5942936623   -1.5167777397
H        1.5187526545    0.5792706531   -1.8130116007
H       -0.6347778264    1.5407104202   -1.3357332690
H       -1.4044343423   -1.1528093210   -0.0259359392
H        1.8640824512   -1.3218336341    0.5902476233
H        0.7706902928   -2.3845571051   -2.2200016605
13   
Iteration 2 Energy -340.97576492
C       -3.0380743090    1.6256129146   -0.4367130631
N       -3.4143717892    2.7077425880   -0.6989178885
C        0.8314743780   -0.0897923464   -1.2920498611
C       -0.4786474553    0.5132741539   -1.0087570592
C       -1.5323139602   -0.1258621485   -0.3596996361
N       -2.7353053435    0.3875033548   -0.0865954576
C        1.4283432718   -1.1669447707   -0.3857580894
C        0.9869809198   -1.5939756975   -1.5175465086
H        1.5188957607    0.5797336911   -1.8126123567
H       -0.6345039425    1.5407782834   -1.3338631932
H       -1.4023699255   -1.1530197667   -0.0242346405
H        1.8656887966   -1.3232181218    0.5889940104
H        0.7699528339   -2.3837032235   -2.2211687292
13   
Iteration 3 Energy -340.97576493
C       -3.0389482493    1.6230784578   -0.4351520380
N       -3.4159583109    2.7053610709   -0.6956906272
C        0.8312814949   -0.0896539240   -1.2921005210
C       -0.4790809687    0.5130535886   -1.0092335717
C       -1.5317927091   -0.1274942711   -0.3600493546
N       -2.7351272323    0.3848041576   -0.0862906998
C        1.4283236506   -1.1665842312   -0.3856431832
C        0.9873803222   -1.5938060909   -1.5175144665
H        1.5185943541    0.5800796380   -1.8125292523
H       -0.6357777885    1.5403974293   -1.3344710776
H       -1.4004228479   -1.1543877336   -0.0242861424
H        1.8655277492   -1.3226896732    0.5892003704
H        0.7708122594   -2.3836178281   -2.2211798239
