13   
Iteration 0 Energy -340.94396886
C       -2.3142413129   -0.9369754308    0.4766772235
N       -3.3111711550   -0.6350893649   -0.0525122697
C        0.6364175387    1.0078917912   -0.4500002571
C        0.0141438200    0.6660818025    0.8365025569
C       -0.1911442849   -0.7196257938    1.2861026865
N       -1.2451214555   -1.4440936779    1.1180125608
C        1.8112993494    0.2075142080   -1.0285098878
C        0.6762141697    0.0254998150   -1.6149787139
H        0.5874088742    2.0773310931   -0.6740702086
H       -0.2151166829    1.4562610484    1.5484034371
H        0.6205282864   -1.2215071835    1.8246999253
H        2.8622292931   -0.0159141553   -0.9094541489
H        0.0704762614   -0.4722732778   -2.3598231608
13   
Iteration 1 Energy -340.94405017
C       -2.3117046728   -0.9419493055    0.4820707246
N       -3.3042037179   -0.6449611785   -0.0574980076
C        0.6401076325    1.0103666932   -0.4498678747
C        0.0123567249    0.6670904483    0.8329133587
C       -0.1882968765   -0.7196555779    1.2861188328
N       -1.2426382795   -1.4441260408    1.1276282163
C        1.8106600428    0.2029700076   -1.0267556403
C        0.6748243025    0.0302404097   -1.6158144833
H        0.5986962942    2.0793461769   -0.6727221346
H       -0.2298998917    1.4607344571    1.5373453145
H        0.6246226495   -1.2226171801    1.8216291973
H        2.8591999409   -0.0282505108   -0.9054136527
H        0.0604746760   -0.4570126312   -2.3593975530
13   
Iteration 2 Energy -340.94412624
C       -2.3034487212   -0.9501265577    0.4786596554
N       -3.2923924936   -0.6605145478   -0.0713459207
C        0.6443005150    1.0125777376   -0.4469869326
C        0.0122591737    0.6701369755    0.8335951784
C       -0.1844244485   -0.7160034394    1.2905732850
N       -1.2363903802   -1.4442917228    1.1336343645
C        1.8051085712    0.1945405760   -1.0276894586
C        0.6674791403    0.0362384441   -1.6171709759
H        0.6137488400    2.0825149639   -0.6662723841
H       -0.2433506634    1.4655896655    1.5312301842
H        0.6284938853   -1.2145460553    1.8301618051
H        2.8509766723   -0.0490689847   -0.9074821294
H        0.0445460854   -0.4392382575   -2.3610806251
13   
Iteration 3 Energy -340.94420945
C       -2.2892264442   -0.9607030610    0.4688380708
N       -3.2731544403   -0.6799990495   -0.0946410373
C        0.6492640712    1.0147408728   -0.4424624807
C        0.0139664989    0.6747124610    0.8368989501
C       -0.1794802796   -0.7100302387    1.2992968132
N       -1.2265066695   -1.4446084815    1.1383062831
C        1.7951080152    0.1822872247   -1.0307507060
C        0.6540306440    0.0436879131   -1.6183511397
H        0.6331862561    2.0859419642   -0.6567971112
H       -0.2556887123    1.4723464746    1.5266457117
H        0.6313069036   -1.2010983881    1.8488445492
H        2.8373848558   -0.0782085230   -0.9144034013
H        0.0204838394   -0.4175185369   -2.3622075201
13   
Iteration 4 Energy -340.94430685
C       -2.2703765550   -0.9742970244    0.4568310678
N       -3.2478752825   -0.7048168976   -0.1230992831
C        0.6559887765    1.0167842852   -0.4368043182
C        0.0161427611    0.6808083621    0.8411252032
C       -0.1732492913   -0.7018885795    1.3112511594
N       -1.2132400727   -1.4451263154    1.1441944261
C        1.7809431475    0.1651272101   -1.0353741111
C        0.6355399356    0.0531546320   -1.6200733340
H        0.6595301593    2.0893232352   -0.6447072738
H       -0.2728144187    1.4814341272    1.5194043072
H        0.6345055925   -1.1827716283    1.8740995725
H        2.8179150959   -0.1182086911   -0.9245383352
H       -0.0114111472   -0.3895209279   -2.3635701967
13   
Iteration 5 Energy -340.94439185
C       -2.2504878339   -0.9885057685    0.4456805654
N       -3.2211529151   -0.7309183645   -0.1509215824
C        0.6619337808    1.0189092245   -0.4305774474
C        0.0177694811    0.6876473677    0.8462419088
C       -0.1671914516   -0.6926881694    1.3248888480
N       -1.1993725617   -1.4453872107    1.1514030380
C        1.7641064266    0.1475555110   -1.0402646176
C        0.6144857221    0.0634034149   -1.6212127177
H        0.6859495212    2.0923692091   -0.6321158483
H       -0.2922843006    1.4912966355    1.5114173108
H        0.6372758502   -1.1625267479    1.9015775868
H        2.7949988026   -0.1596391321   -0.9358203006
H       -0.0464207858   -0.3602060100   -2.3634500485
13   
Iteration 6 Energy -340.94445767
C       -2.2304437975   -1.0018982957    0.4370286413
N       -3.1939040110   -0.7564669477   -0.1761765399
C        0.6666842975    1.0222526059   -0.4225006700
C        0.0186740403    0.6958970929    0.8535582043
C       -0.1616950900   -0.6819707462    1.3408695166
N       -1.1856517790   -1.4444587721    1.1609703498
C        1.7455936059    0.1320080062   -1.0434230374
C        0.5922175947    0.0752782171   -1.6201534785
H        0.7107665358    2.0961730148   -0.6180376837
H       -0.3132397198    1.5022082057    1.5047505549
H        0.6393450904   -1.1404652433    1.9312634972
H        2.7699777380   -0.1985390410   -0.9458426212
H       -0.0823995203   -0.3297131913   -2.3603488365
13   
Iteration 7 Energy -340.94450644
C       -2.2083349914   -1.0121562509    0.4327017555
N       -3.1631843386   -0.7797445590   -0.1988056744
C        0.6731048445    1.0283620736   -0.4087203514
C        0.0202991622    0.7082813133    0.8664943382
C       -0.1561942072   -0.6665529093    1.3635768340
N       -1.1713048980   -1.4392672358    1.1767119516
C        1.7258219261    0.1173605156   -1.0410666782
C        0.5693087450    0.0912182587   -1.6136410779
H        0.7397648047    2.1022207765   -0.5981249529
H       -0.3353950384    1.5173805431    1.5014294818
H        0.6404091137   -1.1128587400    1.9690840133
H        2.7422972491   -0.2388437772   -0.9506928726
H       -0.1197688489   -0.2933125794   -2.3513155660
13   
Iteration 8 Energy -340.94452959
C       -2.1863409873   -1.0074867992    0.4385963459
N       -3.1312904626   -0.7842068264   -0.2108702388
C        0.6897797605    1.0359492385   -0.3858205923
C        0.0292642969    0.7259533663    0.8880501030
C       -0.1497345269   -0.6446363814    1.3957361590
N       -1.1592771254   -1.4231953320    1.2025099328
C        1.7148107030    0.1013221303   -1.0259938184
C        0.5570833120    0.1080996949   -1.5966438004
H        0.7822497593    2.1087358764   -0.5705443222
H       -0.3455750535    1.5394431057    1.5061475584
H        0.6401808342   -1.0818510916    2.0164174429
H        2.7217294318   -0.2823363481   -0.9406131512
H       -0.1452608936   -0.2551121204   -2.3325027018
13   
Iteration 9 Energy -340.94453059
C       -2.1524565011   -0.8326318992    0.5271176187
N       -3.0685450325   -0.5779726414   -0.1514742661
C        0.8361514785    1.0314940052   -0.2998248571
C        0.1401549686    0.7982080921    0.9719192985
C       -0.1214285467   -0.5437466033    1.5186147948
N       -1.1657891905   -1.2758301191    1.3277721001
C        1.7824303286    0.0051095569   -0.9169858264
C        0.6339501568    0.0985262770   -1.4986180474
H        1.0172339315    2.0899577626   -0.5011701448
H       -0.2121553818    1.6498450867    1.5507299598
H        0.6320141224   -1.0001901168    2.1700016298
H        2.7534062979   -0.4595302148   -0.8181859089
H       -0.0921788884   -0.2174529884   -2.2330791165
13   
Iteration 10 Energy -340.94452885
C       -1.9046468762    0.1115081369    1.2049510970
N       -2.7709665417    0.5015732660    0.5252959957
C        1.4167806931    0.8681980121   -0.0302098700
C        0.7854236624    1.0521701015    1.2832132248
C        0.2003433884   -0.0503678049    2.0643041761
N       -1.0195821719   -0.4675037567    2.0368947759
C        1.9848176859   -0.4738521848   -0.4852772068
C        0.8679940736   -0.1431057519   -1.0414802010
H        1.8737958801    1.7818381012   -0.4179364806
H        0.7441759025    2.0486703373    1.7190852348
H        0.8443943454   -0.5968168668    2.7620972111
H        2.7901473331   -1.1789911455   -0.3349769742
H        0.0288923189   -0.3463113548   -1.6903817743
13   
Iteration 11 Energy -340.94453198
C       -2.1503219609   -0.8249370707    0.5318159752
N       -3.0667104378   -0.5710968776   -0.1467305377
C        0.8416456018    1.0309935323   -0.2962597768
C        0.1475432432    0.7988943861    0.9766081548
C       -0.1173570379   -0.5427334712    1.5224632370
N       -1.1641901005   -1.2711332158    1.3315310900
C        1.7886216974    0.0043973407   -0.9125323761
C        0.6393579446    0.0957801373   -1.4929363203
H        1.0216765091    2.0892793963   -0.4994581144
H       -0.2003224834    1.6510974485    1.5572297221
H        0.6348203815   -1.0019978420    2.1733322322
H        2.7601512499   -0.4590819518   -0.8137834558
H       -0.0872451572   -0.2221664283   -2.2260706739
13   
Iteration 12 Energy -340.94453258
C       -2.1520974952   -0.8242775871    0.5346613701
N       -3.0697761505   -0.5698386085   -0.1419127070
C        0.8402547179    1.0307733289   -0.2979024424
C        0.1477084852    0.7980732315    0.9756873419
C       -0.1168625334   -0.5437696631    1.5212478456
N       -1.1645230766   -1.2714081107    1.3320712128
C        1.7897708254    0.0060671294   -0.9137038559
C        0.6399235309    0.0939384220   -1.4935009174
H        1.0175718798    2.0893226176   -0.5020688081
H       -0.1981755095    1.6500618393    1.5577999858
H        0.6363455262   -1.0039092189    2.1703068293
H        2.7625215704   -0.4548354873   -0.8149157762
H       -0.0861827293   -0.2266228001   -2.2260020870
13   
Iteration 13 Energy -340.94453293
C       -2.1491054365   -0.8250207626    0.5453454883
N       -3.0706888162   -0.5708661720   -0.1260069023
C        0.8390764783    1.0296427547   -0.3040784995
C        0.1532694505    0.7972452373    0.9731503425
C       -0.1082736816   -0.5444864474    1.5204456572
N       -1.1570407959   -1.2720451759    1.3372316751
C        1.7895187548    0.0068115417   -0.9219262203
C        0.6367841080    0.0896243690   -1.4967074681
H        1.0120829244    2.0883324807   -0.5111489201
H       -0.1887877470    1.6493605386    1.5573275457
H        0.6484652126   -1.0045632523    2.1654284810
H        2.7642254636   -0.4506090595   -0.8263298211
H       -0.0913406657   -0.2348785617   -2.2254739442
13   
Iteration 14 Energy -340.94453310
C       -2.1086988007   -0.8239077454    0.6334701137
N       -3.0567299310   -0.5789960462   -0.0036167118
C        0.8408295800    1.0292310037   -0.3509205085
C        0.2048567830    0.8078808588    0.9537734968
C       -0.0317683510   -0.5286960960    1.5245999289
N       -1.0849471247   -1.2604637643    1.3900699076
C        1.7709346421    0.0031392287   -0.9939752247
C        0.5969922042    0.0765003955   -1.5254867106
H        1.0022628524    2.0862798392   -0.5750083214
H       -0.1139287796    1.6651946293    1.5435110920
H        0.7508047978   -0.9803625388    2.1442162619
H        2.7501711257   -0.4501944119   -0.9306423474
H       -0.1569284772   -0.2577199624   -2.2229646819
13   
Iteration 15 Energy -340.94453308
C       -2.1076461342   -0.8235071054    0.6343646257
N       -3.0559956245   -0.5780899383   -0.0020490356
C        0.8403775199    1.0291637361   -0.3514210300
C        0.2055006644    0.8082476467    0.9538723007
C       -0.0303815277   -0.5285019285    1.5245307156
N       -1.0836055138   -1.2603118559    1.3904554363
C        1.7701470692    0.0029266250   -0.9946855089
C        0.5957067388    0.0756657753   -1.5251881532
H        1.0012956592    2.0861325198   -0.5762670184
H       -0.1145721268    1.6654895935    1.5429762250
H        0.7526715930   -0.9803122019    2.1434261789
H        2.7495262394   -0.4501820889   -0.9319971375
H       -0.1587686783   -0.2591713912   -2.2217702953
