13   
IRC reactant Energy -340.92496247
C       -1.6943935024    2.6373252684    0.4182092879
N       -0.9404600452    1.7531715947    0.6204015668
C        0.9517197045    0.5729174826   -0.3685647411
C       -0.0267619951    0.6717222243    0.8201711394
C       -0.8242645067   -0.6226543895    1.0355621398
N       -0.6346566252   -1.3838406462    2.0064354370
C        1.5666378090   -0.7328595501   -0.7836556579
C        0.6708865437   -0.2534419221   -1.5900662457
H        1.5221740898    1.5028883787   -0.4656141298
H        0.5401828611    0.8736543851    1.7354364239
H       -1.5821453011   -0.8542248871    0.2717831338
H        2.2935664219   -1.4904299881   -0.5324792303
H        0.1072087273   -0.3186491223   -2.5086477645
13   
IRC product Energy -340.92655378
C       -2.2503620161    1.1768730145   -0.6444067192
N       -1.2949904731    0.9649320696    0.0137364440
C        1.0381587788    0.1983552219   -0.1762170386
C       -0.1167577597    0.6589572393    0.7469329333
C       -0.4215819530   -0.4425538230    1.7761320600
N       -0.0349066668   -0.3937670689    2.9621812910
C        0.8116804152   -0.6074728829   -1.4205992354
C        1.1380801302    0.6335258765   -1.6075460552
H        1.9424476969    0.0460579547    0.4221436810
H        0.1985095120    1.5545239091    1.2930756758
H       -0.9737799561   -1.3131005301    1.3900495685
H        0.5598888782   -1.5768547235   -1.8239122364
H        1.3533075950    1.4561025713   -2.2725990095
