13   
Iteration 287 Energy -340.92496247
C       -1.6943935024    2.6373252684    0.4182092879
N       -0.9404600452    1.7531715947    0.6204015668
C        0.9517197045    0.5729174826   -0.3685647411
C       -0.0267619951    0.6717222243    0.8201711394
C       -0.8242645067   -0.6226543895    1.0355621398
N       -0.6346566252   -1.3838406462    2.0064354370
C        1.5666378090   -0.7328595501   -0.7836556579
C        0.6708865437   -0.2534419221   -1.5900662457
H        1.5221740898    1.5028883787   -0.4656141298
H        0.5401828611    0.8736543851    1.7354364239
H       -1.5821453011   -0.8542248871    0.2717831338
H        2.2935664219   -1.4904299881   -0.5324792303
H        0.1072087273   -0.3186491223   -2.5086477645
13   
Iteration 286 Energy -340.92496247
C       -1.6943934575    2.6373253211    0.4182093771
N       -0.9404600238    1.7531716161    0.6204016065
C        0.9517196820    0.5729174865   -0.3685647631
C       -0.0267619978    0.6717222170    0.8201711338
C       -0.8242645373   -0.6226543834    1.0355621097
N       -0.6346566609   -1.3838406720    2.0064353827
C        1.5666378501   -0.7328595280   -0.7836556412
C        0.6708865490   -0.2534419769   -1.5900662350
H        1.5221740165    1.5028884096   -0.4656141919
H        0.5401828775    0.8736543390    1.7354364154
H       -1.5821453486   -0.8542248405    0.2717831081
H        2.2935665061   -1.4904299190   -0.5324791970
H        0.1072087264   -0.3186492411   -2.5086477457
13   
Iteration 285 Energy -340.92496133
C       -1.7011017107    2.6290828171    0.4041712818
N       -0.9436575964    1.7496802319    0.6139626581
C        0.9551574444    0.5721777819   -0.3650496706
C       -0.0263852960    0.6725897465    0.8209370947
C       -0.8196807048   -0.6237158224    1.0405603009
N       -0.6295461611   -1.3793072141    2.0157005349
C        1.5603142699   -0.7362478672   -0.7864714981
C        0.6702945793   -0.2446707796   -1.5918949198
H        1.5332266344    1.4980598872   -0.4557903749
H        0.5376724667    0.8806264468    1.7365899622
H       -1.5749000132   -0.8619274142    0.2762318209
H        2.2805088109   -1.5011102465   -0.5380845048
H        0.1077914580   -0.2996587391   -2.5118913259
13   
Iteration 284 Energy -340.92495708
C       -1.7075611085    2.6207567397    0.3904519027
N       -0.9467183581    1.7461841806    0.6076515186
C        0.9585234145    0.5713786187   -0.3616602186
C       -0.0259561359    0.6733661938    0.8216758079
C       -0.8152729416   -0.6247127431    1.0455258672
N       -0.6251105789   -1.3744601473    2.0252245034
C        1.5541569380   -0.7394586903   -0.7894064676
C        0.6697599570   -0.2360356267   -1.5937151535
H        1.5439397831    1.4932434048   -0.4461855353
H        0.5352653604    0.8873113677    1.7376656903
H       -1.5676394216   -0.8696446434    0.2805288953
H        2.2678149985   -1.5113985129   -0.5438872143
H        0.1084922746   -0.2809513133   -2.5148982367
13   
Iteration 283 Energy -340.92494968
C       -1.7140215876    2.6123549053    0.3768227528
N       -0.9496782572    1.7425532539    0.6014172947
C        0.9618884488    0.5705665632   -0.3582336308
C       -0.0255378280    0.6740931654    0.8224291300
C       -0.8108693457   -0.6257131175    1.0505733850
N       -0.6210756876   -1.3693381460    2.0349463217
C        1.5479801903   -0.7426024794   -0.7924078319
C        0.6693053419   -0.2273735200   -1.5954628132
H        1.5546340086    1.4882221451   -0.4366742335
H        0.5328675591    0.8940288481    1.7387084476
H       -1.5599920425   -0.8774870141    0.2846841946
H        2.2549671794   -1.5214735658   -0.5498475474
H        0.1092262020   -0.2622522097   -2.5179841103
13   
Iteration 282 Energy -340.92493931
C       -1.7201614710    2.6038501393    0.3633969112
N       -0.9526084998    1.7390071281    0.5952408889
C        0.9651726644    0.5696784714   -0.3549832437
C       -0.0250659525    0.6748055897    0.8231602163
C       -0.8065907468   -0.6266151705    1.0555283038
N       -0.6174144986   -1.3641083771    2.0447452059
C        1.5419085616   -0.7455755436   -0.7955097897
C        0.6688210526   -0.2188470956   -1.5972305027
H        1.5650221405    1.4832673226   -0.4272631582
H        0.5305082771    0.9005009105    1.7396966925
H       -1.5524694680   -0.8852766855    0.2887663001
H        2.2424831090   -1.5312882877   -0.5559558829
H        0.1100890130   -0.2438195731   -2.5206205823
13   
Iteration 281 Energy -340.92492620
C       -1.7262527833    2.5954945207    0.3502050540
N       -0.9553384433    1.7353176518    0.5892711825
C        0.9684050803    0.5688260050   -0.3516629079
C       -0.0246533419    0.6754197860    0.8239081666
C       -0.8024072563   -0.6275533756    1.0605326419
N       -0.6140600002   -1.3588229237    2.0543983871
C        1.5359445089   -0.7484516176   -0.7985650281
C        0.6684920678   -0.2104428034   -1.5988251830
H        1.5752283001    1.4781411053   -0.4181814023
H        0.5282091896    0.9069350271    1.7406367641
H       -1.5448029723   -0.8929265410    0.2927761027
H        2.2299870644   -1.5406543443   -0.5620416656
H        0.1109427676   -0.2257036619   -2.5234807528
13   
Iteration 280 Energy -340.92491051
C       -1.7319724412    2.5869815866    0.3371242246
N       -0.9581400840    1.7317965802    0.5832703948
C        0.9715580385    0.5678677141   -0.3485774547
C       -0.0241792278    0.6760869804    0.8246212131
C       -0.7983028756   -0.6283540525    1.0653964208
N       -0.6108345214   -1.3535367883    2.0640661400
C        1.5300242997   -0.7511655326   -0.8017303799
C        0.6680649381   -0.2021398755   -1.6005032432
H        1.5851637221    1.4731338483   -0.4090445131
H        0.5258855129    0.9131459953    1.7415343949
H       -1.5373807863   -0.9005237499    0.2967903526
H        2.2178380335   -1.5499180393   -0.5682642349
H        0.1119695729   -0.2077958384   -2.5257119556
13   
Iteration 279 Energy -340.92489279
C       -1.7376715876    2.5788032137    0.3244028875
N       -0.9606676875    1.7280996414    0.5775765742
C        0.9746258349    0.5669986409   -0.3453671029
C       -0.0238137345    0.6766125463    0.8253528740
C       -0.7943470681   -0.6292348386    1.0703074000
N       -0.6078324972   -1.3483453902    2.0733424724
C        1.5242878883   -0.7537891880   -0.8047487054
C        0.6678672820   -0.1940609991   -1.6019241976
H        1.5948450051    1.4679502829   -0.4004350046
H        0.5236655353    0.9193103993    1.7423608660
H       -1.5299378778   -0.9078001864    0.3007614487
H        2.2057204121   -1.5585765026   -0.5743009123
H        0.1129526765   -0.1903887912   -2.5283572408
13   
Iteration 278 Energy -340.92487283
C       -1.7429857855    2.5703557175    0.3116967411
N       -0.9633779393    1.7246409563    0.5717334849
C        0.9776368265    0.5659797407   -0.3424580354
C       -0.0233641181    0.6772646249    0.8260239883
C       -0.7904114329   -0.6299314643    1.0750430717
N       -0.6047606073   -1.3431687426    2.0826854402
C        1.5185130034   -0.7562672285   -0.8079142401
C        0.6675109077   -0.1860030160   -1.6035216264
H        1.6043286571    1.4629180119   -0.3915601229
H        0.5213522623    0.9252790298    1.7431544388
H       -1.5228125525   -0.9150956609    0.3048165342
H        2.1938863858   -1.5673328497   -0.5805108218
H        0.1141785742   -0.1730602907   -2.5302174935
13   
Iteration 277 Energy -340.92485152
C       -1.7483672840    2.5623854946    0.2994562216
N       -0.9657478217    1.7209478971    0.5662787727
C        0.9805425390    0.5651068683   -0.3393433821
C       -0.0230711552    0.6777184473    0.8267171640
C       -0.7866628091   -0.6307621665    1.0798626202
N       -0.6018885754   -1.3381590339    2.0914965611
C        1.5129682598   -0.7586894629   -0.8108558591
C        0.6674621427   -0.1782333859   -1.6047850443
H        1.6135445739    1.4576760655   -0.3833982929
H        0.5191872458    0.9312304589    1.7438426260
H       -1.5156942729   -0.9219564383    0.3088328547
H        2.1820749853   -1.5753773418   -0.5864187007
H        0.1153463533   -0.1563085740   -2.5327141820
13   
Iteration 276 Energy -340.92482824
C       -1.7533184152    2.5540662497    0.2872434950
N       -0.9683906689    1.7175841584    0.5605778587
C        0.9834064378    0.5640261080   -0.3366349859
C       -0.0226605490    0.6783763836    0.8273089942
C       -0.7829020784   -0.6313461290    1.0844371975
N       -0.5988219732   -1.3331537383    2.1004324891
C        1.5073460003   -0.7609584701   -0.8139822094
C        0.6672016598   -0.1704406000   -1.6063304050
H        1.6225725861    1.4526419078   -0.3747792646
H        0.5168688606    0.9369607495    1.7445078823
H       -1.5090000934   -0.9289010031    0.3129865565
H        2.1705691952   -1.5836594468   -0.5925311166
H        0.1168232198   -0.1396173413   -2.5342651327
13   
Iteration 275 Energy -340.92480406
C       -1.7584767353    2.5463112312    0.2755420465
N       -0.9706335692    1.7138935450    0.5553181748
C        0.9861592049    0.5631531548   -0.3336035073
C       -0.0224558242    0.6787577493    0.8279343510
C       -0.7793527409   -0.6321329491    1.0891798353
N       -0.5959835827   -1.3283113879    2.1087962092
C        1.5019725631   -0.7632296649   -0.8168414078
C        0.6673342564   -0.1629569330   -1.6074637049
H        1.6313788760    1.4473340815   -0.3670468556
H        0.5147468389    0.9427394394    1.7450226913
H       -1.5022507237   -0.9353584248    0.3170946160
H        2.1590167011   -1.5911775063   -0.5982827746
H        0.1182389171   -0.1234435067   -2.5366783146
13   
Iteration 274 Energy -340.92477812
C       -1.7631263980    2.5381463460    0.2639253762
N       -0.9732283349    1.7106351097    0.5497301894
C        0.9888902399    0.5620001862   -0.3311152399
C       -0.0220865198    0.6794396346    0.8284163868
C       -0.7757596004   -0.6326000378    1.0935720942
N       -0.5928867692   -1.3234336118    2.1173556056
C        1.4965083733   -0.7653090903   -0.8199274024
C        0.6671945159   -0.1554214398   -1.6089981598
H        1.6399822103    1.4422966392   -0.3586451462
H        0.5124087801    0.9482371578    1.7455492381
H       -1.4960068195   -0.9419898426    0.3213489549
H        2.1478268313   -1.5990297187   -0.6042647209
H        0.1199776725   -0.1073925040   -2.5379758169
13   
Iteration 273 Energy -340.92475138
C       -1.7681685935    2.5305641004    0.2527551523
N       -0.9753888038    1.7069186567    0.5446148496
C        0.9915159530    0.5611374076   -0.3281430630
C       -0.0219734385    0.6797490975    0.8289640456
C       -0.7723661899   -0.6333572243    1.0982714303
N       -0.5900903364   -1.3186578870    2.1253946487
C        1.4912555459   -0.7674752192   -0.8227296014
C        0.6675208731   -0.1481662062   -1.6100251145
H        1.6484869449    1.4368901504   -0.3512955871
H        0.5103229353    0.9539079102    1.7458701317
H       -1.4894943308   -0.9481523820    0.3255138918
H        2.1364122053   -1.6061461009   -0.6098852517
H        0.1216614170   -0.0916334747   -2.5403341733
13   
Iteration 272 Energy -340.92472277
C       -1.7726254501    2.5224604036    0.2416253170
N       -0.9779844581    1.7037092473    0.5390628593
C        0.9941724171    0.5598975995   -0.3258478706
C       -0.0216350115    0.6804878377    0.8293432425
C       -0.7688550891   -0.6337193453    1.1025305701
N       -0.5869892112   -1.3137658555    2.1337654705
C        1.4858606306   -0.7693908986   -0.8258241831
C        0.6674929334   -0.1407668297   -1.6115963172
H        1.6568466314    1.4317521744   -0.3429524775
H        0.5079223647    0.9592806123    1.7462819935
H       -1.4834584940   -0.9546594411    0.3298338379
H        2.1253219557   -1.6137009869   -0.6158063000
H        0.1236249625   -0.0760056892   -2.5414447832
13   
Iteration 271 Energy -340.92469317
C       -1.7776756204    2.5148899524    0.2307774589
N       -0.9801359706    1.6998951921    0.5339894406
C        0.9967247694    0.5590455226   -0.3228814304
C       -0.0216032545    0.6807317999    0.8298295944
C       -0.7655206204   -0.6344658930    1.1072851674
N       -0.5842720550   -1.3088959615    2.1417286287
C        1.4805983200   -0.7715106535   -0.8286375845
C        0.6679934752   -0.1335913774   -1.6125406931
H        1.6652484527    1.4261549477   -0.3358399837
H        0.5058460992    0.9649776670    1.7464061511
H       -1.4768962533   -0.9607354594    0.3340374296
H        2.1137841379   -1.6206224106   -0.6214324195
H        0.1256027011   -0.0602944979   -2.5437504004
13   
Iteration 270 Energy -340.92466140
C       -1.7820588271    2.5066716730    0.2198719412
N       -0.9827738915    1.6966307825    0.5283625811
C        0.9993819143    0.5576894274   -0.3207086108
C       -0.0212833401    0.6815503879    0.8301346105
C       -0.7619863480   -0.6347414843    1.1115224511
N       -0.5811951247   -1.3038184814    2.1501606892
C        1.4751384619   -0.7732866065   -0.8318217936
C        0.6680624281   -0.1261372802   -1.6141929755
H        1.6736006249    1.4207515876   -0.3273341670
H        0.5033218865    0.9703823396    1.7467394576
H       -1.4707638481   -0.9673423914    0.3384466154
H        2.1024848289   -1.6280260868   -0.6274428742
H        0.1277654162   -0.0447450391   -2.5447665658
13   
Iteration 269 Energy -340.92462830
C       -1.7872269229    2.4988872885    0.2090450842
N       -0.9849902960    1.6926339708    0.5231912454
C        1.0019203884    0.5568280046   -0.3176914115
C       -0.0213144898    0.6817306096    0.8305734661
C       -0.7586138988   -0.6354902619    1.1164559624
N       -0.5785698795   -1.2986804029    2.1583288419
C        1.4697184562   -0.7754235071   -0.8347339376
C        0.6687195353   -0.1188609326   -1.6150728617
H        1.6820892957    1.4148549464   -0.3202746139
H        0.5012204083    0.9762345290    1.7466619828
H       -1.4639134790   -0.9735404785    0.3427559368
H        2.0905469673   -1.6349712493   -0.6332767042
H        0.1301080964   -0.0286236881   -2.5469916315
13   
Iteration 268 Energy -340.92459252
C       -1.7916714134    2.4903166169    0.1980240243
N       -0.9877047919    1.6891732366    0.5173493790
C        1.0046565919    0.5553145495   -0.3155357459
C       -0.0210061270    0.6826399824    0.8308383282
C       -0.7549462576   -0.6356985813    1.1208248488
N       -0.5755117561   -1.2932298459    2.1670887679
C        1.4640278914   -0.7770829234   -0.8381101253
C        0.6688887129   -0.1111141716   -1.6168484369
H        1.6906963454    1.4089643113   -0.3113581036
H        0.4984993404    0.9818583022    1.7469429911
H       -1.4573798325   -0.9804680032    0.3473475916
H        2.0786581278   -1.6423721347   -0.6395674528
H        0.1324873503   -0.0127225103   -2.5480247072
13   
Iteration 267 Energy -340.92455513
C       -1.7970591251    2.4820534000    0.1868806382
N       -0.9900666173    1.6849009089    0.5119206189
C        1.0072477349    0.5544074371   -0.3124258322
C       -0.0210769104    0.6827655496    0.8312330998
C       -0.7514375155   -0.6364542397    1.1260646070
N       -0.5729561632   -1.2876507659    2.1757390180
C        1.4582900252   -0.7792990224   -0.8412156688
C        0.6696980240   -0.1035420466   -1.6176796666
H        1.6994548614    1.4026404729   -0.3041445667
H        0.4963295663    0.9879875192    1.7466522877
H       -1.4500577948   -0.9869828922    0.3518959042
H        2.0660283503   -1.6495527823   -0.6458358415
H        0.1352997459    0.0043052898   -2.5501132389
13   
Iteration 266 Energy -340.92451471
C       -1.8016522544    2.4729233146    0.1754767269
N       -0.9928618136    1.6811180222    0.5057652778
C        1.0101051315    0.5527042947   -0.3101909113
C       -0.0207773495    0.6837652012    0.8314931734
C       -0.7475578031   -0.6366026117    1.1306919212
N       -0.5699082997   -1.2816947161    2.1849974464
C        1.4522296251   -0.7808384721   -0.8448641883
C        0.6699804251   -0.0953135735   -1.6196049655
H        1.7084971382    1.3960633330   -0.2946415339
H        0.4933604358    0.9939778346    1.7468929961
H       -1.4428856948   -0.9943647511    0.3567552982
H        2.0532346576   -1.6570209952   -0.6525490850
H        0.1379299834    0.0208619478   -2.5512507969
13   
Iteration 265 Energy -340.92447228
C       -1.8073491798    2.4639046583    0.1636669751
N       -0.9954528393    1.6764706409    0.4999396845
C        1.0128204597    0.5517132382   -0.3069599613
C       -0.0208580927    0.6838565370    0.8318443767
C       -0.7438097553   -0.6373652769    1.1363517138
N       -0.5673866621   -1.2755317881    2.1943586778
C        1.4460126045   -0.7831853358   -0.8482490473
C        0.6709510868   -0.0872589858   -1.6203875661
H        1.7176950926    1.3891732229   -0.2870834955
H        0.4910852769    1.0004984751    1.7463760009
H       -1.4349439066   -1.0013499263    0.3616990175
H        2.0396152400   -1.6646119878   -0.6594666520
H        0.1413148567    0.0392653567   -2.5531183650
13   
Iteration 264 Energy -340.92442515
C       -1.8123548717    2.4536451821    0.1511599484
N       -0.9984291821    1.6720703184    0.4931836113
C        1.0159154960    0.5497618721   -0.3044390073
C       -0.0205663503    0.6849583886    0.8321629562
C       -0.7394876578   -0.6374755765    1.1415692301
N       -0.5642478445   -1.2687544774    2.2045867342
C        1.4391799759   -0.7846710137   -0.8523650367
C        0.6713897513   -0.0780666956   -1.6225074747
H        1.7276680448    1.3814405588   -0.2765593544
H        0.4877481012    1.0072554022    1.7465606019
H       -1.4265587119   -1.0095453818    0.3670683604
H        2.0250653914   -1.6724704949   -0.6669767402
H        0.1443720393    0.0574307462   -2.5544724700
13   
Iteration 263 Energy -340.92437511
C       -1.8186034126    2.4431831535    0.1378370287
N       -1.0014591680    1.6667591636    0.4865877227
C        1.0189662251    0.5485558231   -0.3009772095
C       -0.0206110230    0.6851042434    0.8324979784
C       -0.7352299403   -0.6382248288    1.1479630171
N       -0.5616105833   -1.2616891186    2.2152068519
C        1.4320736863   -0.7872026528   -0.8562906558
C        0.6725533169   -0.0689886294   -1.6233252110
H        1.7378752759    1.3734948537   -0.2680375273
H        0.4851835285    1.0145807817    1.7458191863
H       -1.4175485235   -1.0173928436    0.3727926073
H        2.0095978611   -1.6808644174   -0.6750510078
H        0.1485069386    0.0782633001   -2.5560514220
13   
Iteration 262 Energy -340.92432123
C       -1.8239212877    2.4317086422    0.1241118634
N       -1.0045517727    1.6617214414    0.4793512505
C        1.0222111116    0.5463943098   -0.2981525113
C       -0.0203429774    0.6862747831    0.8329164578
C       -0.7304736690   -0.6382939959    1.1537928926
N       -0.5583760812   -1.2541266880    2.2263122580
C        1.4243945609   -0.7885637901   -0.8608535708
C        0.6731596133   -0.0588304199   -1.6255951593
H        1.7486791251    1.3645364838   -0.2565898247
H        0.4815333044    1.0220680398    1.7459227801
H       -1.4078851645   -1.0263417724    0.3786800632
H        1.9931858766   -1.6889613897   -0.6833136905
H        0.1520815420    0.0979931842   -2.5576114499
13   
Iteration 261 Energy -340.92427057
C       -1.8300638424    2.4214085751    0.1109588990
N       -1.0076462283    1.6566230135    0.4729440793
C        1.0252616324    0.5451484051   -0.2947205279
C       -0.0204267428    0.6864277210    0.8332168894
C       -0.7262434697   -0.6389663204    1.1600392562
N       -0.5561322292   -1.2471514865    2.2365821578
C        1.4174550005   -0.7911836676   -0.8647351911
C        0.6743414334   -0.0501536453   -1.6259019772
H        1.7584409037    1.3566268317   -0.2486351566
H        0.4790842519    1.0292858953    1.7449851479
H       -1.3986468862   -1.0339768294    0.3841284064
H        1.9780839978   -1.6971418607   -0.6916390587
H        0.1561863602    0.1186321965   -2.5582515651
13   
Iteration 260 Energy -340.92422273
C       -1.8334498565    2.4111929908    0.1006777358
N       -1.0100556128    1.6508510710    0.4665419632
C        1.0277183485    0.5437482644   -0.2930835588
C       -0.0195334742    0.6876407076    0.8336040439
C       -0.7217630613   -0.6388944849    1.1645787961
N       -0.5534334560   -1.2420017048    2.2450325074
C        1.4103821935   -0.7910567169   -0.8681111264
C        0.6748240774   -0.0413060176   -1.6287754598
H        1.7676029930    1.3490191867   -0.2385828835
H        0.4760417742    1.0360405047    1.7451959262
H       -1.3907961146   -1.0402657108    0.3889920227
H        1.9629610852   -1.7027061960   -0.6965882032
H        0.1591952851    0.1333169341   -2.5605104047
13   
Iteration 259 Energy -340.92415115
C       -1.8421345020    2.3963228036    0.0804087658
N       -1.0145628669    1.6449060604    0.4578045820
C        1.0317189069    0.5407648755   -0.2880613221
C       -0.0204659526    0.6879918140    0.8341122028
C       -0.7165403351   -0.6394101279    1.1740595138
N       -0.5488824314   -1.2311202720    2.2602867227
C        1.4009915165   -0.7948530912   -0.8746491973
C        0.6768173196   -0.0288233667   -1.6292364356
H        1.7808707547    1.3364432600   -0.2260301170
H        0.4719237695    1.0457817322    1.7438421179
H       -1.3789775275   -1.0516003301    0.3984852448
H        1.9426882135   -1.7141101553   -0.7110219330
H        0.1662473165    0.1632856260   -2.5610287857
13   
Iteration 258 Energy -340.92406596
C       -1.8509358523    2.3783601294    0.0597229162
N       -1.0194688725    1.6362913797    0.4467204067
C        1.0364356100    0.5376992295   -0.2833525365
C       -0.0205852500    0.6890455032    0.8343350894
C       -0.7095974473   -0.6396358963    1.1838741982
N       -0.5432085883   -1.2197624739    2.2765701964
C        1.3890759976   -0.7972512469   -0.8815928085
C        0.6790695056   -0.0136558169   -1.6315572860
H        1.7967080026    1.3217079317   -0.2102688590
H        0.4666438512    1.0576001499    1.7424642277
H       -1.3652108282   -1.0639422080    0.4090710817
H        1.9165913562   -1.7258379001   -0.7242095493
H        0.1741766967    0.1949600472   -2.5628057179
13   
Iteration 257 Energy -340.92397060
C       -1.8608651279    2.3573878380    0.0370715844
N       -1.0249505658    1.6258786114    0.4337585528
C        1.0418391142    0.5341675491   -0.2782228546
C       -0.0205414756    0.6903275404    0.8343706351
C       -0.7015617410   -0.6396773489    1.1949089306
N       -0.5366923224   -1.2068935912    2.2947528891
C        1.3752566274   -0.7994511362   -0.8894793653
C        0.6819449044    0.0037556307   -1.6343843583
H        1.8146628578    1.3044183292   -0.1922300685
H        0.4604809935    1.0712460248    1.7405944370
H       -1.3496658306   -1.0775521990    0.4213880512
H        1.8860561747   -1.7385426486   -0.7388028623
H        0.1837305728    0.2305142286   -2.5647542119
13   
Iteration 256 Energy -340.92387737
C       -1.8713470298    2.3361176164    0.0132559992
N       -1.0310071450    1.6157627876    0.4212923008
C        1.0466943714    0.5302785159   -0.2728985815
C       -0.0212254117    0.6915501523    0.8344578200
C       -0.6935500406   -0.6396786210    1.2066748786
N       -0.5291484077   -1.1930762864    2.3134900835
C        1.3610318057   -0.8021171960   -0.8977469130
C        0.6854539040    0.0211929344   -1.6367030576
H        1.8322173023    1.2858247356   -0.1740136745
H        0.4542691460    1.0850245205    1.7381473656
H       -1.3336528262   -1.0914975641    0.4344686414
H        1.8547708043   -1.7514766257   -0.7550732850
H        0.1951877089    0.2676738590   -2.5663802182
13   
Iteration 255 Energy -340.92378829
C       -1.8813453863    2.3142931988   -0.0101890785
N       -1.0372281374    1.6045784798    0.4082766784
C        1.0516688938    0.5262977551   -0.2677238928
C       -0.0217610160    0.6927860381    0.8342672698
C       -0.6853343476   -0.6394937972    1.2184823466
N       -0.5211025334   -1.1794988760    2.3319331099
C        1.3465148358   -0.8040846859   -0.9062231435
C        0.6893045917    0.0390494206   -1.6393011566
H        1.8498541732    1.2664057675   -0.1552805383
H        0.4476442962    1.0991869059    1.7353056329
H       -1.3182033398   -1.1048909138    0.4483873522
H        1.8225097863   -1.7635997048   -0.7710799532
H        0.2071723651    0.3045492403   -2.5678832678
13   
Iteration 254 Energy -340.92370296
C       -1.8911011449    2.2926033299   -0.0333062151
N       -1.0434184993    1.5933369027    0.3956173642
C        1.0562966701    0.5219717457   -0.2626713130
C       -0.0223925537    0.6938536182    0.8342538554
C       -0.6771724167   -0.6392018167    1.2308560962
N       -0.5154758846   -1.1647263443    2.3515452693
C        1.3321159796   -0.8059686682   -0.9152295441
C        0.6931750881    0.0566159681   -1.6415883442
H        1.8667236974    1.2463324448   -0.1370682201
H        0.4413081061    1.1133915677    1.7321358753
H       -1.3006255009   -1.1190562408    0.4618843324
H        1.7906170057   -1.7751046489   -0.7885769245
H        0.2196436348    0.3415309701   -2.5688808727
13   
Iteration 253 Energy -340.92362378
C       -1.9007960902    2.2703641486   -0.0553811260
N       -1.0490790905    1.5817491742    0.3825067415
C        1.0609674496    0.5175697790   -0.2577285736
C       -0.0227735788    0.6950264943    0.8341186910
C       -0.6688764148   -0.6386636190    1.2429706383
N       -0.5107871157   -1.1498400146    2.3707884314
C        1.3174402733   -0.8073964047   -0.9240512763
C        0.6971899555    0.0741224805   -1.6437609500
H        1.8832948233    1.2258308200   -0.1191067706
H        0.4350470666    1.1277237947    1.7286811548
H       -1.2822992890   -1.1330287268    0.4750963239
H        1.7582864007   -1.7857625816   -0.8058840114
H        0.2320797915    0.3778834839   -2.5692779139
13   
Iteration 252 Energy -340.92355190
C       -1.9107986405    2.2469456762   -0.0784313850
N       -1.0549487418    1.5699224050    0.3694741430
C        1.0655213250    0.5130781601   -0.2526744871
C       -0.0233975961    0.6963068441    0.8339015663
C       -0.6607055054   -0.6377476268    1.2552025654
N       -0.5028387639   -1.1363710950    2.3885705737
C        1.3026342441   -0.8085775113   -0.9327964102
C        0.7018880005    0.0916889436   -1.6455849541
H        1.8995581121    1.2045757316   -0.1008220880
H        0.4285651459    1.1422851165    1.7248451870
H       -1.2668930817   -1.1448265464    0.4897943197
H        1.7251400447   -1.7959823078   -0.8231937340
H        0.2459696385    0.4142810386   -2.5693139374
13   
Iteration 251 Energy -340.92348691
C       -1.9205947868    2.2232615958   -0.1016978841
N       -1.0612532651    1.5577215001    0.3565875967
C        1.0696950862    0.5083804535   -0.2477606145
C       -0.0243707402    0.6975481737    0.8335075772
C       -0.6526373495   -0.6366466510    1.2677322882
N       -0.4926624104   -1.1237534209    2.4057415083
C        1.2877152962   -0.8093533448   -0.9417253807
C        0.7073391165    0.1094278312   -1.6476512993
H        1.9151732162    1.1824521977   -0.0820843974
H        0.4218199435    1.1570435237    1.7204013569
H       -1.2534121914   -1.1555544417    0.5059352819
H        1.6913919071   -1.8054934731   -0.8404262087
H        0.2614903592    0.4505448843   -2.5695884653
13   
Iteration 250 Energy -340.92343000
C       -1.9300369874    2.2002407676   -0.1237883111
N       -1.0675283668    1.5456168082    0.3442056900
C        1.0733573502    0.5033745771   -0.2431551802
C       -0.0255959062    0.6985127541    0.8329634725
C       -0.6447123583   -0.6355568716    1.2804623104
N       -0.4845682561   -1.1089311183    2.4242327282
C        1.2728737327   -0.8098825530   -0.9512005448
C        0.7130135373    0.1269065611   -1.6498202520
H        1.9297912911    1.1596972787   -0.0636294093
H        0.4150984267    1.1711840766    1.7155772843
H       -1.2378716527   -1.1678474648    0.5218510933
H        1.6579646257   -1.8142316810   -0.8588731258
H        0.2779087453    0.4864956938   -2.5698543963
13   
Iteration 249 Energy -340.92338226
C       -1.9396632310    2.1771081017   -0.1447920006
N       -1.0737316511    1.5331703261    0.3315663956
C        1.0768752687    0.4981424652   -0.2386677809
C       -0.0268783442    0.6994427053    0.8321873176
C       -0.6367682354   -0.6342769538    1.2931637396
N       -0.4769271010   -1.0933135663    2.4427793777
C        1.2579571749   -0.8101439212   -0.9608105705
C        0.7189567435    0.1442436386   -1.6518488851
H        1.9439353923    1.1361609363   -0.0452305893
H        0.4083181622    1.1853186939    1.7102634125
H       -1.2218676821   -1.1802044637    0.5379027053
H        1.6243535503   -1.8222744474   -0.8777821000
H        0.2951341344    0.5222053136   -2.5697596627
13   
Iteration 248 Energy -340.92335409
C       -1.9467429131    2.1600685977   -0.1598043421
N       -1.0782634830    1.5238779896    0.3222880178
C        1.0793130222    0.4942383397   -0.2354585347
C       -0.0278778642    0.7001329034    0.8315218890
C       -0.6310276034   -0.6331786009    1.3024516808
N       -0.4707017120   -1.0822477660    2.4558972864
C        1.2470733610   -0.8101468732   -0.9678152363
C        0.7235975338    0.1567874786   -1.6532425122
H        1.9538437905    1.1186489449   -0.0318326574
H        0.4033093027    1.1957055831    1.7061002873
H       -1.2109064333   -1.1885752491    0.5500022472
H        1.5997435290   -1.8276783080   -0.8916168438
H        0.3083336511    0.5479457886   -2.5695199227
13   
Iteration 247 Energy -340.92333777
C       -1.9516893265    2.1479038976   -0.1703287736
N       -1.0814640912    1.5171856478    0.3157627293
C        1.0809659696    0.4914324014   -0.2332347992
C       -0.0285921721    0.7005960489    0.8310279832