13   
Iteration 0 Energy -340.92317965
C       -1.9376334919    2.1301919659   -0.3495497182
N       -1.1846264793    1.4007961413    0.1913309336
C        0.9712002581    0.2500740538   -0.1448657167
C       -0.2553489524    0.4899983244    0.7790914666
C       -0.9791610583   -0.8260310127    1.1107986725
N       -0.8992433726   -1.3863937297    2.2235753572
C        1.1176500715   -1.0080547090   -0.9566252788
C        0.8120103673    0.0591645579   -1.6248343707
H        1.8631269557    0.7511923253    0.2437629247
H        0.0951523660    0.9199040768    1.7206691391
H       -1.5584191389   -1.2726956381    0.2890721824
H        1.3461663687   -2.0624589178   -0.9203171479
H        0.6092246082    0.5545284087   -2.5621334943
13   
Iteration 1 Energy -340.92322404
C       -1.9342303965    2.1157165335   -0.3642918902
N       -1.1787835729    1.3949839468    0.1844451109
C        0.9752801757    0.2488703630   -0.1433985758
C       -0.2501341763    0.4892780564    0.7801618599
C       -0.9759439710   -0.8241402568    1.1159916711
N       -0.9036692105   -1.3776138931    2.2323488931
C        1.1158487100   -1.0072422314   -0.9594248580
C        0.8063666583    0.0624647198   -1.6221155980
H        1.8694314907    0.7468715699    0.2425154232
H        0.0972547931    0.9244871315    1.7214151930
H       -1.5525126073   -1.2746659457    0.2939106947
H        1.3432095658   -2.0620494278   -0.9265129464
H        0.5962834077    0.5647423223   -2.5540986342
13   
Iteration 2 Energy -340.92328083
C       -1.9259546915    2.1119756718   -0.3711214906
N       -1.1652516380    1.4002715494    0.1821398274
C        0.9837964311    0.2518970967   -0.1444282180
C       -0.2378068949    0.4953436657    0.7822948961
C       -0.9702356936   -0.8141140363    1.1184792209
N       -0.9249395929   -1.3511576648    2.2441775886
C        1.1231425128   -1.0055467067   -0.9593311558
C        0.7983786269    0.0601102191   -1.6207686349
H        1.8788171478    0.7566375972    0.2298901080
H        0.1079607101    0.9334175794    1.7229561799
H       -1.5319533775   -1.2727394806    0.2905837651
H        1.3573978115   -2.0588660376   -0.9256232059
H        0.5652859561    0.5619805673   -2.5474396539
13   
Iteration 3 Energy -340.92331546
C       -1.9122672479    2.1351972196   -0.3521761003
N       -1.1371158895    1.4330317198    0.1932248307
C        1.0079335513    0.2863030732   -0.1611211529
C       -0.1966961180    0.5356959516    0.7853496606
C       -0.9213632222   -0.7714535162    1.1454245385
N       -0.8996003245   -1.2706841634    2.2890751677
C        1.1449850443   -0.9855225735   -0.9543201344
C        0.7944761871    0.0631801460   -1.6294761901
H        1.9046590561    0.8091620111    0.1829754324
H        0.1640592558    0.9833414272    1.7158057567
H       -1.4576911086   -1.2621955382    0.3191614774
H        1.3931804977   -2.0350713487   -0.9051270497
H        0.5283619407    0.5423908123   -2.5592575787
13   
Iteration 4 Energy -340.92333042
C       -1.9271268225    2.2184647323   -0.2979532584
N       -1.0936208810    1.5639815830    0.2199713296
C        1.0504321330    0.4395932788   -0.2136141863
C       -0.0949471238    0.7194432634    0.7946231966
C       -0.7653235348   -0.5787070683    1.2735467280
N       -0.6855911192   -0.9942351886    2.4476600485
C        1.1885390732   -0.8879067110   -0.9096898297
C        0.7500973416    0.0874835220   -1.6411280227
H        1.9453192366    1.0218854682    0.0231337644
H        0.3155992895    1.2261707215    1.6727471147
H       -1.3194019121   -1.1399093999    0.5059283901
H        1.4854281414   -1.9193666322   -0.7931375650
H        0.4031948298    0.4758312169   -2.5865719241
13   
Iteration 5 Energy -340.92332941
C       -1.9180565257    2.2019279051   -0.3299425990
N       -1.0946281963    1.5509414561    0.2081820295
C        1.0489876665    0.4278122620   -0.2141120556
C       -0.0965699357    0.7128191404    0.7930618532
C       -0.7649258209   -0.5813991595    1.2846417402
N       -0.6736565184   -0.9910864510    2.4600053198
C        1.1810182008   -0.8977153709   -0.9149542646
C        0.7450803811    0.0820815303   -1.6420437471
H        1.9461991293    1.0059957077    0.0240699436
H        0.3132326394    1.2275007911    1.6668477118
H       -1.3268594233   -1.1467823463    0.5259231300
H        1.4732283057   -1.9310614082   -0.8037743753
H        0.3981560479    0.4770506868   -2.5847120909
13   
Iteration 6 Energy -340.92333332
C       -1.9201460222    2.2132502772   -0.3139942128
N       -1.0933114583    1.5592162349    0.2151357787
C        1.0497425682    0.4360075734   -0.2132699591
C       -0.0957626099    0.7167716496    0.7948234823
C       -0.7656988099   -0.5795389173    1.2786549317
N       -0.6830275921   -0.9913109171    2.4538945295
C        1.1863302878   -0.8900505074   -0.9125613585
C        0.7474198219    0.0875036965   -1.6408743206
H        1.9452820108    1.0170348711    0.0243165669
H        0.3143645107    1.2261698423    1.6715611868
H       -1.3213109740   -1.1437596827    0.5144604037
H        1.4822861277   -1.9221612349   -0.7998262260
H        0.3995544972    0.4795661322   -2.5844184479
13   
Iteration 7 Energy -340.92334238
C       -1.9067120117    2.1746789669   -0.3774282523
N       -1.0916523776    1.5188481368    0.1674780076
C        1.0355720236    0.3666643626   -0.2535152309
C       -0.1020069375    0.6732821765    0.7561484031
C       -0.7844437238   -0.6086933077    1.2605784964
N       -0.6867875550   -1.0152919588    2.4365201469
C        1.1598308398   -0.9718040794   -0.9306119455
C        0.7194439629   -0.0049818896   -1.6722770361
H        1.9351286304    0.9485996498   -0.0339480753
H        0.3173181235    1.1902918553    1.6240356338
H       -1.3627211520   -1.1690615709    0.5104854774
H        1.4514551367   -2.0033228287   -0.8023107136
H        0.3636303080    0.3727035169   -2.6187184426
13   
Iteration 8 Energy -340.92333192
C       -1.9078143807    2.1665004828   -0.4248325868
N       -1.0967070315    1.5119838194    0.1274746847
C        1.0258455809    0.3389237735   -0.2667929218
C       -0.1153425227    0.6679957278    0.7318408428
C       -0.8084570235   -0.6026178375    1.2498632996
N       -0.7231814821   -0.9905944262    2.4330047408
C        1.1351506426   -1.0050181929   -0.9358832593
C        0.7168162940   -0.0353542752   -1.6864636249
H        1.9327356589    0.9071841976   -0.0417248663
H        0.3029326618    1.1938510259    1.5948931738
H       -1.3820687358   -1.1720672728    0.5030398987
H        1.4095787705   -2.0402677524   -0.7998225108
H        0.3760911209    0.3426480109   -2.6383044282
13   
Iteration 9 Energy -340.92332802
C       -1.9080388010    2.1700369657   -0.4003351047
N       -1.0955986243    1.5146006669    0.1489302902
C        1.0333179869    0.3571334339   -0.2538934960
C       -0.1107943292    0.6699566825    0.7467470764
C       -0.7978736154   -0.6093263497    1.2511895825
N       -0.7145472870   -1.0073481822    2.4311260483
C        1.1468970790   -0.9770755422   -0.9414808927
C        0.7271246381    0.0019615148   -1.6790041639
H        1.9383957695    0.9245066898   -0.0195291636
H        0.3035437736    1.1893295210    1.6155872901
H       -1.3652564437   -1.1757709310    0.4973474102
H        1.4236456806   -2.0134858354   -0.8197480962
H        0.3858739963    0.3925472319   -2.6255570848
13   
Iteration 10 Energy -340.92332207
C       -1.9126367208    2.1717899207   -0.3739036184
N       -1.0936517549    1.5191781501    0.1689682480
C        1.0425911116    0.3786541850   -0.2455255964
C       -0.1013815589    0.6782263188    0.7594694447
C       -0.7781884921   -0.6087615290    1.2582512516
N       -0.6918172115   -1.0113638915    2.4364053368
C        1.1573494823   -0.9475315510   -0.9482828821
C        0.7359721733    0.0392753305   -1.6744148465
H        1.9471615770    0.9442939578   -0.0051860064
H        0.3114558295    1.1955321229    1.6302407386
H       -1.3408874656   -1.1762744363    0.5016832920
H        1.4354204808   -1.9849219054   -0.8384664642
H        0.3931444495    0.4400503586   -2.6161210190
13   
Iteration 11 Energy -340.92331389
C       -1.9221848964    2.1663333397   -0.3379152878
N       -1.0924905006    1.5202548192    0.1964405887
C        1.0553624587    0.4079941301   -0.2367000310
C       -0.0869799479    0.6877211346    0.7761492705
C       -0.7453277735   -0.6107007997    1.2699876665
N       -0.6480864662   -1.0199800327    2.4449814685
C        1.1715014544   -0.9061530439   -0.9614680522
C        0.7455821810    0.0913399463   -1.6701118994
H        1.9591883999    0.9717277289    0.0106915030
H        0.3243199814    1.2042188992    1.6480996747
H       -1.3044994135   -1.1802372688    0.5122911839
H        1.4523228265   -1.9445440293   -0.8695650805
H        0.3986241529    0.5066847788   -2.6039491951
13   
Iteration 12 Energy -340.92329471
C       -2.0956047972    2.1940735255    0.0609469416
N       -1.1261225679    1.6268580372    0.4211268854
C        1.0111491524    0.6973639060   -0.3749582176
C        0.0315235711    0.8881907298    0.8136119105
C       -0.4188380103   -0.4593105250    1.4004626440
N       -0.0824916851   -0.8541863978    2.5355628217
C        1.1196161001   -0.6110173595   -1.1114720237
C        0.5061082139    0.3398859124   -1.7421129051
H        1.8940289501    1.3345619063   -0.2731423998
H        0.5371697201    1.4445958441    1.6080021474
H       -1.0516053620   -1.0771695910    0.7453436108
H        1.4968748087   -1.6215894803   -1.0662130351
H       -0.0123739588    0.7142461922   -2.6115946289
13   
Iteration 13 Energy -340.92330974
C       -1.9309808998    2.1581096718   -0.3142353763
N       -1.0924763161    1.5183488566    0.2139396281
C        1.0630461822    0.4257563060   -0.2332508547
C       -0.0763603015    0.6937372504    0.7862656442
C       -0.7202801127   -0.6116289581    1.2808411765
N       -0.6115045818   -1.0237443472    2.4538257252
C        1.1796853070   -0.8819800770   -0.9693936787
C        0.7487433099    0.1203085167   -1.6681311488
H        1.9664461354    0.9894345831    0.0157481082
H        0.3351750205    1.2120524621    1.6570132545
H       -1.2796216542   -1.1835821687    0.5250661150
H        1.4631380931   -1.9204659093   -0.8871428098
H        0.3972981411    0.5425788595   -2.5971662140
13   
Iteration 14 Energy -340.92330480
C       -1.9496832186    2.1354821128   -0.2728451891
N       -1.0941961133    1.5087541775    0.2435924325
C        1.0730706220    0.4504577201   -0.2317540231
C       -0.0578242735    0.7001977117    0.8020813493
C       -0.6742740269   -0.6157586487    1.3035035003
N       -0.5415472734   -1.0286455004    2.4737422986
C        1.1903062824   -0.8487737661   -0.9826575058
C        0.7462377081    0.1579807341   -1.6665558480
H        1.9755207948    1.0168472883    0.0144141635
H        0.3564759031    1.2243042522    1.6680162408
H       -1.2358524978   -1.1947022442    0.5547030382
H        1.4806072790   -1.8863641685   -0.9141128183
H        0.3829565758    0.5877585891   -2.5875509513
13   
Iteration 15 Energy -340.92330168
C       -1.9748110989    2.1037606645   -0.2197438733
N       -1.0961382645    1.4955200214    0.2795911343
C        1.0816357630    0.4775819661   -0.2377259343
C       -0.0326368741    0.7093017205    0.8183839921
C       -0.6124104421   -0.6169648607    1.3360772611
N       -0.4458952296   -1.0246100487    2.5038212355
C        1.1983831128   -0.8162092855   -0.9979917628
C        0.7316347444    0.1895951800   -1.6680009827
H        1.9827081880    1.0515640427   -0.0045347670
H        0.3892835988    1.2441327732    1.6740037872
H       -1.1788897195   -1.2083302177    0.6007580652
H        1.5002047657   -1.8511903678   -0.9406092307
H        0.3473654640    0.6206160737   -2.5798438459
13   
Iteration 16 Energy -340.92330139
C       -1.9801823961    2.0747260365   -0.2165066663
N       -1.0976703407    1.4759529042    0.2874631934
C        1.0898722204    0.4784455270   -0.2271221035
C       -0.0272211665    0.7009907425    0.8284484512
C       -0.5944167990   -0.6302708311    1.3472750579
N       -0.4269142365   -1.0342610242    2.5161375965
C        1.2013673720   -0.8043617221   -1.0064649311
C        0.7416974743    0.2139255590   -1.6623324325
H        1.9934161013    1.0437419338    0.0172683655
H        0.3890165454    1.2407501116    1.6837114607
H       -1.1524117392   -1.2287971402    0.6112279617
H        1.4970224496   -1.8418471975   -0.9642245949
H        0.3608550985    0.6609207773   -2.5678837528
13   
Iteration 17 Energy -340.92330122
C       -1.9804037110    2.0734317893   -0.2190912033
N       -1.0987495802    1.4739991413    0.2856114659
C        1.0888690017    0.4768163376   -0.2283683789
C       -0.0290663372    0.6978775469    0.8265238599
C       -0.5972971865   -0.6341255430    1.3423004478
N       -0.4312876375   -1.0408266467    2.5104324836
C        1.2035408209   -0.8065544238   -1.0062554774
C        0.7420655574    0.2100256028   -1.6635152536
H        1.9910431312    1.0443611943    0.0159352591
H        0.3864191190    1.2362030627    1.6830724745
H       -1.1550246403   -1.2307226840    0.6044834102
H        1.5011946705   -1.8434073435   -0.9625966536
H        0.3607242538    0.6551052079   -2.5698057724
13   
Iteration 18 Energy -340.92330117
C       -1.9751013255    2.0844272625   -0.2235946719
N       -1.0971534935    1.4820056247    0.2839977692
C        1.0884042152    0.4764164770   -0.2225317829
C       -0.0319986469    0.7023240064    0.8287109167
C       -0.6067730181   -0.6272229920    1.3436193502
N       -0.4471048349   -1.0330241989    2.5129463616
C        1.2004957066   -0.8077613258   -0.9994673855
C        0.7450880863    0.2103088192   -1.6586483513
H        1.9920364604    1.0405090587    0.0243512593
H        0.3827817804    1.2397169753    1.6861850171
H       -1.1633415482   -1.2228168039    0.6041203530
H        1.4940029195   -1.8457353532   -0.9543643335
H        0.3683578802    0.6564312784   -2.5663531428
