13   
Iteration 1 Energy -340.92501873
C       -2.4276615145    0.6361894874    0.2674684002
N       -1.4517803209    1.4272908213    0.2058827812
C        0.8397084856    0.5967718604   -0.3644753015
C       -0.3080141815    0.5754464092    0.6488226554
C       -0.9808977512   -0.7544879502    0.9047683147
N       -2.2537796923   -0.7150957631    0.6825496824
C        1.7707010989   -0.5726459479   -0.5587077465
C        0.9192991918   -0.3689055521   -1.5154604518
H        1.2187683376    1.6143815566   -0.4968582518
H        0.0525719989    0.9914209582    1.6031312430
H       -0.4886025723   -1.6616558460    1.2490869169
H        2.5994925983   -1.1309845735   -0.1483459593
H        0.5101943216   -0.6377254603   -2.4778622828
13   
Iteration 2 Energy -340.96809783
C       -1.4761339403   -1.6035987713    0.0488098719
N       -1.7141454460   -2.1847282225   -0.9485770898
C        0.6005725540    0.9693623056   -0.5156245106
C       -0.0082954375    0.9944146012    0.8222562146
C       -0.7558980730    0.0686448612    1.5598132898
N       -1.3449607511   -1.0823601150    1.2427686564
C        1.6273673166   -0.1134719312   -0.8928075198
C        0.5082408525   -0.1633767638   -1.5257513291
H        0.7921100579    1.9791930317   -0.8902568231
H        0.2145161034    1.9024244058    1.3830845157
H       -0.9025603260    0.3306767468    2.6077293350
H        2.6171958462   -0.4704578259   -0.6557599907
H       -0.1580087567   -0.6267223225   -2.2356846203
