13   
Iteration 7 Energy -340.94788551
C       -2.4406249246    0.6189989268    0.2700293006
N       -1.4660234234    1.4102641172    0.1927140704
C        0.8388630017    0.5946123566   -0.3664948805
C       -0.3142866435    0.5673870564    0.6387001246
C       -0.9808082821   -0.7633070867    0.9062215308
N       -2.2567431226   -0.7264670430    0.6941547052
C        1.7734811001   -0.5740228517   -0.5634127011
C        0.9263065224   -0.3646382130   -1.5249214614
H        1.2180302328    1.6117810393   -0.4933952493
H        0.0348763876    0.9913648108    1.5939030824
H       -0.4849621435   -1.6665346924    1.2529554775
H        2.6010811594   -1.1325310500   -0.1529303509
H        0.5305368528   -0.6201566147   -2.4956672392
13   
Iteration 8 Energy -340.98997794
C       -1.4883687446   -1.6022024510    0.0502936605
N       -1.7389564243   -2.1795367586   -0.9464640735
C        0.5993436523    0.9714962195   -0.5165112573
C       -0.0082778493    0.9931899511    0.8207111478
C       -0.7527834110    0.0654756739    1.5622540023
N       -1.3442408534   -1.0854149171    1.2445976694
C        1.6354028701   -0.1094121805   -0.8916364061
C        0.5169161735   -0.1635794394   -1.5275645939
H        0.7893595099    1.9799051513   -0.8924359382
H        0.2100484796    1.9028117221    1.3803887294
H       -0.8936660350    0.3247607855    2.6109256704
H        2.6263485028   -0.4588739743   -0.6511170077
H       -0.1439176361   -0.6293425373   -2.2406581832
