13   
Iteration 63 Energy -340.99817169
C       -2.4516540375    1.3434408359    1.2710550594
N       -2.7610154984    2.4125839948    1.6499212789
C        1.2906128387    0.1481759817   -0.5247008058
C        0.0259139661    0.5731129922    0.0901107310
C       -1.0668461591   -0.2574568714    0.3357239820
N       -2.2309145963    0.0974576459    0.8898475678
C        1.8133972718   -1.2834580998   -0.3734369411
C        1.3414216787   -0.9992452890   -1.5384391151
H        2.0227498366    0.9501177119   -0.6259556631
H       -0.0588794550    1.6210607783    0.3732958350
H       -1.0092408107   -1.3091610395    0.0644733564
H        2.2405974718   -1.9680947585    0.3429855164
H        1.0686594590   -1.2619592934   -2.5488993225
13   
Iteration 62 Energy -340.99817112
C       -2.4523205606    1.3439859462    1.2690742287
N       -2.7633708983    2.4141017326    1.6437420847
C        1.2909832838    0.1478506225   -0.5235741371
C        0.0263165903    0.5727450550    0.0912605110
C       -1.0654581215   -0.2583693708    0.3394310777
N       -2.2298810829    0.0968710241    0.8926203838
C        1.8124233128   -1.2844635572   -0.3753974897
C        1.3411662881   -0.9973844231   -1.5399881395
H        2.0237493561    0.9494337400   -0.6231069196
H       -0.0594894607    1.6212642345    0.3720887336
H       -1.0066392102   -1.3108358727    0.0714415994
H        2.2388022630   -1.9711677222    0.3395419129
H        1.0685202059   -1.2574568198   -2.5511523666
13   
Iteration 61 Energy -340.99816980
C       -2.4536377026    1.3441221736    1.2663296030
N       -2.7682914654    2.4152159102    1.6352461855
C        1.2920617914    0.1476211054   -0.5220890747
C        0.0275341520    0.5730790098    0.0928379618
C       -1.0625703906   -0.2591423173    0.3443827368
N       -2.2277749935    0.0957749178    0.8960050458
C        1.8105683473   -1.2860293697   -0.3779834063
C        1.3400930287   -0.9949071756   -1.5418426865
H        2.0262313068    0.9481353140   -0.6196130287
H       -0.0595459665    1.6223024294    0.3705438922
H       -1.0014568857   -1.3125455905    0.0806353743
H        2.2350772068   -1.9757029586    0.3351896192
H        1.0665135371   -1.2513488595   -2.5536607432
13   
Iteration 60 Energy -340.99816662
C       -2.4551251553    1.3459722369    1.2623006679
N       -2.7727833829    2.4202784246    1.6189986260
C        1.2927330303    0.1464294409   -0.5187049897
C        0.0276549592    0.5711472721    0.0954504546
C       -1.0604902844   -0.2617485468    0.3534345449
N       -2.2259750787    0.0948239596    0.9036519654
C        1.8091562043   -1.2883558593   -0.3829244685
C        1.3398305766   -0.9902480293   -1.5455886083
H        2.0275906585    0.9469019987   -0.6119017987
H       -0.0612702555    1.6216589240    0.3676115656
H       -0.9974174450   -1.3169663177    0.0974283370
H        2.2335990996   -1.9830309814    0.3255139327
H        1.0672990389   -1.2402879335   -2.5592887496
13   
Iteration 59 Energy -340.99815738
C       -2.4587086602    1.3459761522    1.2558550087
N       -2.7855323821    2.4231294028    1.5954068039
C        1.2950963473    0.1456127548   -0.5151244674
C        0.0307402555    0.5720134854    0.0993640272
C       -1.0529035419   -0.2635817061    0.3672275978
N       -2.2202275167    0.0920323785    0.9137987560
C        1.8036876998   -1.2926145487   -0.3900442203
C        1.3377134851   -0.9834122007   -1.5510402195
H        2.0340661687    0.9429103855   -0.6021526140
H       -0.0620554081    1.6245587216    0.3626226429
H       -0.9835953350   -1.3212192879    0.1231745326
H        2.2223624643   -1.9954352898    0.3137523356
H        1.0641583891   -1.2233956588   -2.5668587042
13   
Iteration 58 Energy -340.99814031
C       -2.4621803593    1.3480476587    1.2483874162
N       -2.7964060551    2.4297759344    1.5654151421
C        1.2972548130    0.1435620183   -0.5091282470
C        0.0320671425    0.5699483428    0.1040931571
C       -1.0472921672   -0.2671371873    0.3838507916
N       -2.2156275356    0.0900956645    0.9274133271
C        1.7998146263   -1.2972132582   -0.3989397759
C        1.3360505191   -0.9748981089   -1.5574033025
H        2.0384421032    0.9396754731   -0.5887849893
H       -0.0639794885    1.6246732949    0.3568233849
H       -0.9732630753   -1.3276381306    0.1538728567
H        2.2168447257   -2.0093816535    0.2964635052
H        1.0630767171   -1.2029354592   -2.5760817870
13   
Iteration 57 Energy -340.99811899
C       -2.4657536518    1.3483147189    1.2415520097
N       -2.8080693313    2.4329125638    1.5397101722
C        1.2992001950    0.1423746039   -0.5051053945
C        0.0347887256    0.5700415291    0.1083698927
C       -1.0402963586   -0.2691402894    0.3985072499
N       -2.2102582551    0.0878412927    0.9385047903
C        1.7944948976   -1.3014754503   -0.4065814707
C        1.3340232934   -0.9675570290   -1.5630284176
H        2.0442418473    0.9354847457   -0.5781544621
H       -0.0651763336    1.6266942103    0.3519167295
H       -0.9603945905   -1.3319144117    0.1812837183
H        2.2069494685   -2.0219504181    0.2830132615
H        1.0610520593   -1.1850514770   -2.5840066001
13   
Iteration 56 Energy -340.99809291
C       -2.4688631030    1.3495920276    1.2346453244
N       -2.8178297718    2.4371105188    1.5138231062
C        1.3012331348    0.1404902825   -0.5001186377
C        0.0362107458    0.5686825627    0.1125077029
C       -1.0348566330   -0.2716503289    0.4131125796
N       -2.2059285049    0.0863080768    0.9501433397
C        1.7906520768   -1.3054556504   -0.4143559295
C        1.3324741383   -0.9601338429   -1.5684389180
H        2.0485805508    0.9320633597   -0.5668373177
H       -0.0667520082    1.6271557952    0.3465150179
H       -0.9502633729   -1.3365318594    0.2083080324
H        2.2005577252   -2.0340016293    0.2682673274
H        1.0595869877   -1.1670547238   -2.5915901484
13   
Iteration 55 Energy -340.99806287
C       -2.4720426564    1.3500018071    1.2272790865
N       -2.8279276123    2.4397002551    1.4887625470
C        1.3029352908    0.1392601440   -0.4959243032
C        0.0386688446    0.5683844223    0.1169416402
C       -1.0285724227   -0.2735681526    0.4271768471
N       -2.2012174093    0.0846135675    0.9605419224
C        1.7855741762   -1.3093832593   -0.4216369038
C        1.3299890466   -0.9529856102   -1.5734265173
H        2.0535951944    0.9281835353   -0.5566450633
H       -0.0677448910    1.6283576573    0.3424635848
H       -0.9388406978   -1.3403724188    0.2346908390
H        2.1927199243   -2.0456177224    0.2544193612
H        1.0576651785   -1.1499996364   -2.5986615613
13   
Iteration 54 Energy -340.99802857
C       -2.4747646357    1.3510507144    1.2199325523
N       -2.8368359034    2.4427993714    1.4637967597
C        1.3046780801    0.1372247547   -0.4913204144
C        0.0399987072    0.5670246654    0.1210642307
C       -1.0231703167   -0.2757904382    0.4417033391
N       -2.1970548916    0.0833115565    0.9717506057
C        1.7818059916   -1.3130288584   -0.4294800743
C        1.3289631194   -0.9456832989   -1.5788748984
H        2.0577863010    0.9243338275   -0.5456138973
H       -0.0697461248    1.6288061859    0.3369212690
H       -0.9283379233   -1.3443068800    0.2617112623
H        2.1851426761   -2.0569984505    0.2403665793
H        1.0563368858   -1.1321685607   -2.6059758343
13   
Iteration 53 Energy -340.99798672
C       -2.4779762529    1.3514142523    1.2108803897
N       -2.8472392846    2.4446769980    1.4362269821
C        1.3066935874    0.1359004207   -0.4863540533
C        0.0427843947    0.5666044980    0.1265211795
C       -1.0164324948   -0.2776628407    0.4567103315
N       -2.1922042512    0.0818779102    0.9823273221
C        1.7761813286   -1.3170737774   -0.4370569230
C        1.3250458970   -0.9378826544   -1.5834796151
H        2.0630510653    0.9203141786   -0.5350805942
H       -0.0700472746    1.6295269250    0.3337381346
H       -0.9165641147   -1.3478939670    0.2896352425
H        2.1783887026   -2.0691513134    0.2244446190
H        1.0531206629   -1.1140760411   -2.6125315360
13   
Iteration 52 Energy -340.99793767
C       -2.4807106304    1.3523647534    1.2020164733
N       -2.8565708072    2.4472874984    1.4081344643
C        1.3081627006    0.1334693028   -0.4814927168
C        0.0444168991    0.5650214444    0.1313480717
C       -1.0103642945   -0.2799566032    0.4733951557
N       -2.1876695218    0.0806934410    0.9948027321
C        1.7717629325   -1.3210098992   -0.4462128082
C        1.3241728512   -0.9295942263   -1.5897901598
H        2.0675608281    0.9154040560   -0.5226244960
H       -0.0727218147    1.6299214084    0.3275813172
H       -0.9044396783   -1.3517624990    0.3209602790
H        2.1690339174   -2.0814660792    0.2086653262
H        1.0521685838   -1.0937980087   -2.6208021594
13   
Iteration 51 Energy -340.99786874
C       -2.4844758857    1.3527036894    1.1895347007
N       -2.8692390734    2.4485394255    1.3721188309
C        1.3108555195    0.1312747430   -0.4748248787
C        0.0476692972    0.5640702360    0.1386546754
C       -1.0019016005   -0.2820299474    0.4930586730
N       -2.1816525002    0.0794119412    1.0084815739
C        1.7649005707   -1.3259162836   -0.4562212193
C        1.3191965413   -0.9193049892   -1.5955094609
H        2.0741559924    0.9098526831   -0.5089596381
H       -0.0731275779    1.6302995606    0.3233611579
H       -0.8894592594   -1.3554935172    0.3573341639
H        2.1604023544   -2.0967895563    0.1875483176
H        1.0474775876   -1.0700433962   -2.6285954171
13   
Iteration 50 Energy -340.99777735
C       -2.4883153313    1.3530181149    1.1756187813
N       -2.8825838696    2.4497910487    1.3314047553
C        1.3130252382    0.1280405960   -0.4679132752
C        0.0509312829    0.5625254957    0.1462657198
C       -0.9925661438   -0.2844559446    0.5165959642
N       -2.1749453466    0.0781256870    1.0252384173
C        1.7573051663   -1.3314866673   -0.4687692076
C        1.3159882703   -0.9073385588   -1.6033494069
H        2.0810543303    0.9023997219   -0.4922508640
H       -0.0756183929    1.6308258619    0.3162752850
H       -0.8717376776   -1.3594087184    0.4014257556
H        2.1474639898   -2.1139064405    0.1642616135
H        1.0448004498   -1.0415556076   -2.6388220591
13   
Iteration 49 Energy -340.99765158
C       -2.4929754888    1.3526461582    1.1582017841
N       -2.8986690100    2.4490533570    1.2823224001
C        1.3163708471    0.1245579202   -0.4592886208
C        0.0551079297    0.5609827980    0.1560661253
C       -0.9812528217   -0.2863651936    0.5437985637
N       -2.1668676819    0.0772339700    1.0442127104
C        1.7478300110   -1.3377670439   -0.4828074633
C        1.3099886792   -0.8931847543   -1.6111268640
H        2.0899293807    0.8937850440   -0.4737120609
H       -0.0765072226    1.6308910043    0.3098994470
H       -0.8512038733   -1.3625639753    0.4518259114
H        2.1337909654   -2.1339854372    0.1355099645
H        1.0392602510   -1.0087092585   -2.6489204183
13   
Iteration 48 Energy -340.99749540
C       -2.4977233390    1.3514865308    1.1397031853
N       -2.9151837053    2.4470032417    1.2302975729
C        1.3193071117    0.1203146530   -0.4505225057
C        0.0599371893    0.5597717990    0.1661921205
C       -0.9690123468   -0.2880035417    0.5731690384
N       -2.1581491107    0.0764772779    1.0647128339
C        1.7370018384   -1.3445066584   -0.4981984402
C        1.3043653295   -0.8780388917   -1.6198251101
H        2.0991849597    0.8834362339   -0.4535970693
H       -0.0783869938    1.6315105626    0.3021702036
H       -0.8286294757   -1.3648048316    0.5066128385
H        2.1172168026   -2.1548283655    0.1052299965
H        1.0348737057   -0.9732434212   -2.6599631849
13   
Iteration 47 Energy -340.99732458
C       -2.5020670947    1.3497702970    1.1216987688
N       -2.9307619853    2.4428178694    1.1799354327
C        1.3226016596    0.1164465965   -0.4421835495
C        0.0642543704    0.5581634079    0.1760402535
C       -0.9575087987   -0.2886359911    0.6009381001
N       -2.1496896069    0.0767103198    1.0844034579
C        1.7264375467   -1.3504718433   -0.5126419215
C        1.2984259956   -0.8632965736   -1.6274442327
H        2.1085384389    0.8734395400   -0.4350151504
H       -0.0788875612    1.6310049177    0.2955083181
H       -0.8076902255   -1.3654714067    0.5582703352
H        2.1013500189   -2.1742140810    0.0757796719
H        1.0297992083   -0.9396884636   -2.6693080049
13   
Iteration 46 Energy -340.99713916
C       -2.5061469595    1.3473322751    1.1041766015
N       -2.9450012516    2.4379458734    1.1311042042
C        1.3251707335    0.1120059046   -0.4341250048
C        0.0692778506    0.5575522189    0.1859705380
C       -0.9460821611   -0.2890189674    0.6276695917
N       -2.1415563949    0.0768596829    1.1029357596
C        1.7159128487   -1.3564198510   -0.5266384727
C        1.2923486558   -0.8492809324   -1.6344583430
H        2.1169836751    0.8629265207   -0.4174936457
H       -0.0798586908    1.6315663105    0.2897317282
H       -0.7872172483   -1.3652270429    0.6074852175
H        2.0861081241   -2.1924047616    0.0474013251
H        1.0248627843   -0.9072626419   -2.6777780203
13   
Iteration 45 Energy -340.99695272
C       -2.5093323753    1.3448332605    1.0882659608
N       -2.9570903395    2.4316680035    1.0860766905
C        1.3279480288    0.1088154967   -0.4274002388
C        0.0730228536    0.5555587506    0.1947534630
C       -0.9365531504   -0.2887713702    0.6517053826
N       -2.1343078124    0.0781040527    1.1202352534
C        1.7065754781   -1.3609150068   -0.5393384291
C        1.2869774860   -0.8362547748   -1.6405993433
H        2.1250990160    0.8539114539   -0.4020753661
H       -0.0792550969    1.6299311060    0.2853722991
H       -0.7700382233   -1.3641277366    0.6521400988
H        2.0716941977   -2.2079220089    0.0216246896
H        1.0200619036   -0.8782566376   -2.6847789810
13   
Iteration 44 Energy -340.99675717
C       -2.5124796976    1.3412486825    1.0727108363
N       -2.9683610395    2.4248387938    1.0428761407
C        1.3301085398    0.1045204823   -0.4201687785
C        0.0781706386    0.5562088928    0.2043542878
C       -0.9259619208   -0.2881931394    0.6742144972
N       -2.1270305154    0.0782717122    1.1352090423
C        1.6969028816   -1.3657378362   -0.5509199581
C        1.2803277817   -0.8242817074   -1.6454985695
H        2.1325365015    0.8439394593   -0.3878286759
H       -0.0795757738    1.6314933997    0.2819882478
H       -0.7516874448   -1.3621209751    0.6922300074
H        2.0581300569   -2.2229213723   -0.0029099300
H        1.0137219577   -0.8506918032   -2.6902756682
13   
Iteration 43 Energy -340.99654982
C       -2.5144399431    1.3382006672    1.0576800397
N       -2.9773128531    2.4171415246    0.9993377260
C        1.3325647148    0.1022294996   -0.4144500475
C        0.0817074914    0.5536053049    0.2127062601
C       -0.9178739791   -0.2879086958    0.6964596866
N       -2.1206749485    0.0801629563    1.1512250414
C        1.6879695815   -1.3692376428   -0.5628509379
C        1.2749912036   -0.8117217311   -1.6507698797
H        2.1399168561    0.8358951476   -0.3744304302
H       -0.0782332601    1.6284714224    0.2798914269
H       -0.7372712932   -1.3604570491    0.7340272788
H        2.0447567464   -2.2358634340   -0.0270268517
H        1.0087016491   -0.8239433809   -2.6958178330
13   
Iteration 42 Energy -340.99630352
C       -2.5165116747    1.3332703266    1.0405842660
N       -2.9862753592    2.4073432667    0.9511480654
C        1.3348577881    0.0977638390   -0.4064310106
C        0.0872572910    0.5539371820    0.2242144393
C       -0.9066971978   -0.2867958064    0.7199685615
N       -2.1131795694    0.0805837438    1.1662599983
C        1.6778297466   -1.3733321464   -0.5749362318
C        1.2667275219   -0.7988085819   -1.6549251253
H        2.1476212822    0.8253211764   -0.3600914914
H       -0.0778812181    1.6296297140    0.2783826848
H       -0.7184044332   -1.3572011312    0.7746107170
H        2.0304934712   -2.2502115751   -0.0531276821
H        0.9989643172   -0.7949254187   -2.6996757118
13   
Iteration 41 Energy -340.99602903
C       -2.5173207816    1.3284338424    1.0228948619
N       -2.9925050616    2.3967429565    0.9001355069
C        1.3373861787    0.0951622952   -0.3995585436
C        0.0923481253    0.5520491744    0.2352906421
C       -0.8974665687   -0.2866503497    0.7440494619
N       -2.1066268045    0.0820135421    1.1818414313
C        1.6677314799   -1.3764291048   -0.5875352335
C        1.2583462448   -0.7848784261   -1.6591489801
H        2.1553626068    0.8164999529   -0.3470235051
H       -0.0757408841    1.6270919328    0.2798320528
H       -0.7026945480   -1.3548576262    0.8182905044
H        2.0168528245   -2.2628880324   -0.0797832793
H        0.9891291544   -0.7657155683   -2.7033034405
13   
Iteration 40 Energy -340.99571546
C       -2.5172093523    1.3222430671    1.0038532891
N       -2.9960514208    2.3840722500    0.8459847230
C        1.3394601610    0.0914405792   -0.3911911673
C        0.0980806924    0.5511547823    0.2490990413
C       -0.8866106916   -0.2857410527    0.7682989908
N       -2.0997137548    0.0825431255    1.1960899921
C        1.6576290371   -1.3791518920   -0.6000001651
C        1.2478685112   -0.7709460998   -1.6622459520
H        2.1626407061    0.8066257105   -0.3336079273
H       -0.0742742920    1.6265621579    0.2823089005
H       -0.6850248062   -1.3513363741    0.8592710311
H        2.0033411633   -2.2752221225   -0.1069331534
H        0.9746660124   -0.7356695423   -2.7049461235
13   
Iteration 39 Energy -340.99536360
C       -2.5159799894    1.3155640531    0.9834901017
N       -2.9963928566    2.3708091283    0.7889858330
C        1.3420301689    0.0892712736   -0.3835488563
C        0.1046241928    0.5497742285    0.2632573608
C       -0.8770908246   -0.2862961117    0.7924922790
N       -2.0938577021    0.0827184223    1.2090429717
C        1.6473810337   -1.3808761835   -0.6122644983
C        1.2358006250   -0.7563101090   -1.6645488128
H        2.1701127419    0.7985862547   -0.3226185559
H       -0.0706841529    1.6244454707    0.2896112637
H       -0.6695357400   -1.3491547291    0.9014195256
H        1.9908104501   -2.2858271634   -0.1340820279
H        0.9575840189   -0.7061299456   -2.7052551050
13   
Iteration 38 Energy -340.99496830
C       -2.5132478454    1.3077864886    0.9621229951
N       -2.9923570530    2.3555864957    0.7306001694
C        1.3437471667    0.0868074244   -0.3747199112
C        0.1111416808    0.5484650187    0.2801220396
C       -0.8666295020   -0.2858800289    0.8156800091
N       -2.0879976309    0.0822779882    1.2199523140
C        1.6376942505   -1.3818644063   -0.6239894581
C        1.2217895783   -0.7421629305   -1.6654198535
H        2.1765610874    0.7904322286   -0.3118059101
H       -0.0675371386    1.6232435266    0.2981630031
H       -0.6536010370   -1.3460610640    0.9389122618
H        1.9797165775   -2.2949902502   -0.1605277977
H        0.9355218317   -0.6770659020   -2.7031083820
13   
Iteration 37 Energy -340.99452914
C       -2.5098509259    1.2996431008    0.9393355449
N       -2.9855106138    2.3406070970    0.6708164823
C        1.3465368459    0.0858793597   -0.3668663971
C        0.1191163363    0.5474697785    0.2968604611
C       -0.8578255832   -0.2876809984    0.8382557068
N       -2.0835629975    0.0807005401    1.2285253577
C        1.6281736131   -1.3815761476   -0.6349196372
C        1.2060755534   -0.7277804681   -1.6653046536
H        2.1834711594    0.7846831800   -0.3045784186
H       -0.0617066389    1.6215720116    0.3126152835
H       -0.6399759478   -1.3450489189    0.9768250394
H        1.9694401885   -2.3022862973   -0.1861779639
H        0.9104209763   -0.6496076485   -2.6994053260
13   
Iteration 36 Energy -340.99405107
C       -2.5047207291    1.2906994962    0.9165130532
N       -2.9739109411    2.3241177971    0.6129367279
C        1.3476588445    0.0847709560   -0.3579283358
C        0.1261809817    0.5460762045    0.3160833653
C       -0.8481885140   -0.2876191083    0.8585562262
N       -2.0789822113    0.0789936939    1.2345993549
C        1.6193869787   -1.3808650853   -0.6448368782
C        1.1889984786   -0.7147750332   -1.6636904895
H        2.1883926526    0.7790691968   -0.2974094436
H       -0.0568444383    1.6201663678    0.3266178471
H       -0.6266464774   -1.3428034441    1.0076049187
H        1.9619072805   -2.3076686230   -0.2097880304
H        0.8815700604   -0.6235878294   -2.6932768366
13   
Iteration 35 Energy -340.99352499
C       -2.4997807281    1.2818566394    0.8920477879
N       -2.9606789752    2.3088942932    0.5541832965
C        1.3504555531    0.0850202486   -0.3505620084
C        0.1353243801    0.5454473064    0.3342845307
C       -0.8407899428   -0.2908732206    0.8786754552
N       -2.0763151807    0.0757334152    1.2382595155
C        1.6112949048   -1.3787346495   -0.6541381695
C        1.1708301893   -0.7015577222   -1.6615428698
H        2.1942203471    0.7759897635   -0.2942982318
H       -0.0489136705    1.6192473740    0.3472564592
H       -0.6156448192   -1.3433877720    1.0405749346
H        1.9545589508   -2.3115181453   -0.2326940363
H        0.8502409571   -0.5995429418   -2.6860651845
13   
Iteration 34 Energy -340.99294376
C       -2.4924946748    1.2721225446    0.8673699206
N       -2.9421603795    2.2922557426    0.4971407908
C        1.3511337561    0.0852622119   -0.3418488261
C        0.1428100845    0.5435984514    0.3554719476
C       -0.8322300731   -0.2914242566    0.8964509392
N       -2.0728941525    0.0727248380    1.2395714630
C        1.6035396821   -1.3764434127   -0.6625020308
C        1.1508852136   -0.6896594131   -1.6577166639
H        2.1973545148    0.7734347092   -0.2909161822
H       -0.0421301166    1.6170964721    0.3667829684
H       -0.6051335299   -1.3423928570    1.0663443356
H        1.9507849326   -2.3134791381   -0.2539549820
H        0.8153367085   -0.5765213034   -2.6762122009
13   
Iteration 33 Energy -340.99229814
C       -2.4856271168    1.2625450492    0.8405748417
N       -2.9215626002    2.2768052801    0.4390690983
C        1.3530650435    0.0864103487   -0.3343776022
C        0.1526700788    0.5429365801    0.3758577947
C       -0.8258257581   -0.2956876233    0.9145668297
N       -2.0715599537    0.0682202755    1.2385461933
C        1.5968604358   -1.3728186678   -0.6707036920
C        1.1299046013   -0.6775038437   -1.6533607050
H        2.2012507494    0.7726237076   -0.2906786270
H       -0.0329927050    1.6167208912    0.3919111636
H       -0.5963098636   -1.3442662924    1.0948492696
H        1.9474665833   -2.3141934473   -0.2751896513
H        0.7774624710   -0.5552176690   -2.6650834341
13   
Iteration 32 Energy -340.99159291
C       -2.4766005842    1.2527734254    0.8136263804
N       -2.8967695951    2.2616766948    0.3828489187
C        1.3536588972    0.0878959901   -0.3263174532
C        0.1606927190    0.5404413824    0.3980966628
C       -0.8190778499   -0.2979335302    0.9306078242
N       -2.0696723867    0.0637763134    1.2354151444
C        1.5908806629   -1.3688606208   -0.6780360619
C        1.1076104315   -0.6665579067   -1.6476325129
H        2.2023725837    0.7736957862   -0.2913584919
H       -0.0242751479    1.6136564739    0.4174026828
H       -0.5890866088   -1.3453490902    1.1182430994
H        1.9478292348   -2.3130723576   -0.2951630475
H        0.7372396094   -0.5355679719   -2.6517516660
13   
Iteration 31 Energy -340.99083233
C       -2.4675179647    1.2431885594    0.7855449826
N       -2.8691440461    2.2474093863    0.3284966856
C        1.3540830994    0.0898072757   -0.3190346198
C        0.1699597007    0.5389384941    0.4197177593
C       -0.8140941276   -0.3027690383    0.9461969760
N       -2.0694567748    0.0588169836    1.2301475172
C        1.5860437477   -1.3640508271   -0.6851706516
C        1.0850502536   -0.6561259570   -1.6414262273
H        2.2030643977    0.7756049737   -0.2935342897
H       -0.0150977297    1.6127117598    0.4449346198
H       -0.5832310130   -1.3483390446    1.1420049173
H        1.9497168257   -2.3106116100   -0.3145971612
H        0.6954255967   -0.5180063667   -2.6372990288
13   
Iteration 30 Energy -340.99001952
C       -2.4569434461    1.2342867701    0.7575422156
N       -2.8392466061    2.2350627756    0.2758517640
C        1.3539927010    0.0922082543   -0.3119650506
C        0.1778088258    0.5356399206    0.4419188048
C       -0.8094268139   -0.3066714857    0.9602925598
N       -2.0689069193    0.0534234439    1.2233660746
C        1.5822602981   -1.3587379123   -0.6916256072
C        1.0618873859   -0.6468151565   -1.6343774124
H        2.2013539066    0.7800492100   -0.2974111707
H       -0.0057034896    1.6086993042    0.4739719295
H       -0.5794580904   -1.3514105185    1.1628207437
H        1.9545755997   -2.3065526721   -0.3330177645
H        0.6526086141   -0.5026073447   -2.6213856072
13   
Iteration 29 Energy -340.98914921
C       -2.4456181032    1.2251832665    0.7286486263
N       -2.8058612347    2.2228621005    0.2261534688
C        1.3529430777    0.0947568151   -0.3054376552
C        0.1861953328    0.5330120705    0.4638701639
C       -0.8062561122   -0.3123029038    0.9737777599
N       -2.0697574807    0.0486119589    1.2146011906
C        1.5794227010   -1.3528760616   -0.6980638455
C        1.0388161861   -0.6382740656   -1.6270572526
H        2.1984755024    0.7848982024   -0.3018816555
H        0.0029629219    1.6066743523    0.5034942937
H       -0.5769626451   -1.3556031546    1.1835724389
H        1.9613986379   -2.3011825839   -0.3510780517
H        0.6090431819   -0.4891854078   -2.6046180023
13   
Iteration 28 Energy -340.98822924
C       -2.4334160548    1.2177198363    0.7001789977
N       -2.7718017984    2.2133439089    0.1773563757
C        1.3515710363    0.0979269409   -0.2994269423
C        0.1934434070    0.5286574658    0.4859943101
C       -0.8034504176   -0.3175112950    0.9862491318
N       -2.0699890735    0.0426573342    1.2052755557
C        1.5776130161   -1.3464526991   -0.7040655138
C        1.0154545959   -0.6308006948   -1.6191743744
H        2.1933970964    0.7922397684   -0.3079462216
H        0.0126649245    1.6014453764    0.5345225217
H       -0.5764436629   -1.3603472804    1.2020363624
H        1.9705781564   -2.2942718988   -0.3682067997
H        0.5651807406   -0.4780321738   -2.5868119240
13   
Iteration 27 Energy -340.98724128
C       -2.4195032276    1.2089891555    0.6706461676
N       -2.7334220559    2.2031440961    0.1320098115
C        1.3491135548    0.1010944605   -0.2940813788
C        0.2009548702    0.5248581024    0.5078476886
C       -0.8021425486   -0.3238872983    0.9982038144
N       -2.0717280486    0.0385040577    1.1935273465
C        1.5765799139   -1.3395416530   -0.7101908576
C        0.9923998268   -0.6240372741   -1.6113847064
H        2.1867918412    0.8001084804   -0.3146661082
H        0.0203720883    1.5980533742    0.5667146959
H       -0.5772334524   -1.3654745261    1.2214431692
H        1.9813004386   -2.2862850176   -0.3853627588
H        0.5213187652   -0.4689513689   -2.5687254046
13   
Iteration 26 Energy -340.98620784
C       -2.4056138958    1.2032945680    0.6421897491
N       -2.6955101009    2.1958980137    0.0869226239
C        1.3456314974    0.1051004772   -0.2892010579
C        0.2073582376    0.5195890137    0.5300355977
C       -0.8010727943   -0.3303983832    1.0094168382
N       -2.0723952594    0.0322389744    1.1826255270
C        1.5762657978   -1.3321173250   -0.7161148628
C        0.9692850296   -0.6184772305   -1.6031655013
H        2.1779113321    0.8097723225   -0.3220457491
H        0.0306136834    1.5920068942    0.5986300008
H       -0.5797362877   -1.3718226551    1.2378984677
H        1.9943308996   -2.2764509967   -0.4013161216
H        0.4777338264   -0.4620590845   -2.5498940325
13   
Iteration 25 Energy -340.98509859
C       -2.3889083593    1.1953816551    0.6127361233
N       -2.6527924210    2.1881157179    0.0453125386
C        1.3416217897    0.1090022594   -0.2855364831
C        0.2136099864    0.5143290748    0.5512243866
C       -0.8015710318   -0.3372829702    1.0202895024
N       -2.0746479074    0.0286060003    1.1686787664
C        1.5768607361   -1.3240580004   -0.7221438582
C        0.9467398280   -0.6135098473   -1.5955402144
H        2.1670848879    0.8209089898   -0.3310235156
H        0.0372124848    1.5862736238    0.6343436909
H       -0.5836530029   -1.3775771111    1.2569345630
H        2.0081245201   -2.2658414840   -0.4176051014
H        0.4351204553   -0.4577733193   -2.5316889193
13   
Iteration 24 Energy -340.98394747
C       -2.3726740149    1.1907932108    0.5849843429
N       -2.6100198858    2.1822174565    0.0049618456
C        1.3354241989    0.1138890397   -0.2821540931
C        0.2188235465    0.5084570974    0.5730657518
C       -0.8024555785   -0.3451329016    1.0304886688
N       -2.0760230018    0.0228102689    1.1565779370
C        1.5775219369   -1.3156308059   -0.7280254308
C        0.9246660056   -0.6097927368   -1.5877963861
H        2.1540073882    0.8326570880   -0.3393436851
H        0.0469120257    1.5800430612    0.6663642127
H       -0.5891472562   -1.3852045863    1.2725015329
H        2.0239177934   -2.2531523763   -0.4322332430
H        0.3938488080   -0.4553792269   -2.5134099745
13   
Iteration 23 Energy -340.98271957
C       -2.3536166980    1.1847323933    0.5572491081
N       -2.5631146475    2.1768378769   -0.0331227531
C        1.3291538382    0.1188682559   -0.2804198219
C        0.2234117250    0.5018732276    0.5932501864
C       -0.8045408768   -0.3525718978    1.0404315581