13   
IRC reactant Energy -340.99817169
C       -2.4516540375    1.3434408359    1.2710550594
N       -2.7610154984    2.4125839948    1.6499212789
C        1.2906128387    0.1481759817   -0.5247008058
C        0.0259139661    0.5731129922    0.0901107310
C       -1.0668461591   -0.2574568714    0.3357239820
N       -2.2309145963    0.0974576459    0.8898475678
C        1.8133972718   -1.2834580998   -0.3734369411
C        1.3414216787   -0.9992452890   -1.5384391151
H        2.0227498366    0.9501177119   -0.6259556631
H       -0.0588794550    1.6210607783    0.3732958350
H       -1.0092408107   -1.3091610395    0.0644733564
H        2.2405974718   -1.9680947585    0.3429855164
H        1.0686594590   -1.2619592934   -2.5488993225
13   
IRC product Energy -340.94788563
C       -2.1644970284    1.2293768867    0.3272434724
N       -1.0386933886    1.7476930846    0.1135635871
C        0.9445338853    0.3475549359   -0.5152005550
C       -0.0894895866    0.6827117234    0.5616698057
C       -1.0309418751   -0.4179716982    0.9961945243
N       -2.2739276574   -0.0837142191    0.8638152189
C        1.5408754265   -1.0304802665   -0.6692866953
C        0.6922652261   -0.6801715552   -1.5875172329
H        1.5508667987    1.2242659593   -0.7564573247
H        0.4332069856    1.0784252626    1.4471347010
H       -0.7390437701   -1.3865635566    1.3944116175
H        2.2368581506   -1.7507149634   -0.2664927210
H        0.1627887992   -0.8938370045   -2.5030969188
