3    
Climbing Image - Chain 32 Image 3 Energy   -92.2460173521 (+67.798 kcal/mol) RMSGrad 0.041 eV/Ang
C       -0.0518086423   -0.6445962021    0.0000000000
N       -0.6782575425    0.3584393251    0.0000000000
H        0.7300661847    0.2861568770    0.0000000000
