13   
Iteration 0 Energy -340.92655395
C       -2.1760411510    1.3242500989   -0.8978831944
N       -1.3416157472    0.9686037285   -0.1441790790
C        0.9119036564   -0.0249635511   -0.1026147374
C       -0.3060579929    0.4903008647    0.7032771597
C       -0.8488791956   -0.6413322362    1.5922946246
N       -0.6191954075   -0.7162101298    2.8171258676
C        0.7763769657   -0.7163696075   -1.4265045961
C        1.2410750444    0.4934335244   -1.4704562510
H        1.7104340488   -0.3114660376    0.5896387215
H        0.0180112695    1.3078364310    1.3561897032
H       -1.4264880079   -1.4194857590    1.0700889860
H        0.4890335271   -1.6245497287   -1.9348315459
H        1.6194112755    1.3322689345   -2.0347818693
13   
Iteration 1 Energy -340.92655397
C       -2.1758885386    1.3248562248   -0.8981822475
N       -1.3415653936    0.9690207242   -0.1444656449
C        0.9118846875   -0.0247602287   -0.1025568315
C       -0.3061331133    0.4906735323    0.7031598729
C       -0.8491514302   -0.6407780216    1.5922791926
N       -0.6200449161   -0.7159171162    2.8172111561
C        0.7764967140   -0.7166056982   -1.4262232820
C        1.2410737102    0.4932379140   -1.4705439311
H        1.7104387125   -0.3109814838    0.5897868608
H        0.0179285832    1.3082755784    1.3559954709
H       -1.4266871903   -1.4188603202    1.0699062463
H        0.4892912052   -1.6249553513   -1.9343170104
H        1.6193641862    1.3318989708   -2.0351489878
