3    
Iteration 0 Energy -92.33969073
C       -0.7404826979   -0.8145629256    0.0000000000
N        0.0395802153    0.0435504208    0.0000000000
H        0.7009024826    0.7710125048   -0.0000000000
3    
Iteration 1 Energy -92.33969073
C       -0.7404836575   -0.8145621376   -0.0000000000
N        0.0395822033    0.0435490666   -0.0000000000
H        0.7009014543    0.7710130710   -0.0000000000
