13   
IRC reactant Energy -340.92170113
C       -2.4737834524    0.9948360554   -1.0000228546
N       -1.5981196034    0.7661242943   -0.2449860388
C        0.8478840854    0.4609265684   -0.1705278293
C       -0.4992702254    0.4897282069    0.6135427127
C       -0.6929724471   -0.8246577010    1.3768905876
N       -1.5511136359   -1.6997934267    1.1352462944
C        1.3730400671   -0.8157534511   -0.7682652955
C        0.8675287769    0.0310541454   -1.6065621980
H        1.5435828316    1.2274288378    0.1826573972
H       -0.4471510639    1.2918954073    1.3603570305
H        0.0441926864   -0.9837923813    2.1801999985
H        1.8280947689   -1.7710570822   -0.5558148094
H        0.5800930276    0.3157555678   -2.6067437030
