13   
Iteration 0 Energy -340.92170113
C       -2.4737834524    0.9948360554   -1.0000228546
N       -1.5981196034    0.7661242943   -0.2449860388
C        0.8478840854    0.4609265684   -0.1705278293
C       -0.4992702254    0.4897282069    0.6135427127
C       -0.6929724471   -0.8246577010    1.3768905876
N       -1.5511136359   -1.6997934267    1.1352462944
C        1.3730400671   -0.8157534511   -0.7682652955
C        0.8675287769    0.0310541454   -1.6065621980
H        1.5435828316    1.2274288378    0.1826573972
H       -0.4471510639    1.2918954073    1.3603570305
H        0.0441926864   -0.9837923813    2.1801999985
H        1.8280947689   -1.7710570822   -0.5558148094
H        0.5800930276    0.3157555678   -2.6067437030
13   
Iteration 1 Energy -340.92172997
C       -2.4667782538    0.9820963965   -1.0112146888
N       -1.5948126308    0.7595553633   -0.2501024278
C        0.8481608147    0.4598562997   -0.1689524616
C       -0.4991678465    0.4883542379    0.6139748983
C       -0.6923076082   -0.8233503436    1.3823462290
N       -1.5474062865   -1.7032159416    1.1474837419
C        1.3652722054   -0.8170655408   -0.7735347065
C        0.8682537414    0.0391164867   -1.6074146325
H        1.5466526509    1.2217973437    0.1885450857
H       -0.4492478379    1.2919390298    1.3594200194
H        0.0440607210   -0.9755585805    2.1877433821
H        1.8129871915   -1.7770149534   -0.5665525908
H        0.5851409266    0.3326014073   -2.6062981143
13   
Iteration 2 Energy -340.92182697
C       -2.4442543925    0.9208729133   -1.0517173270
N       -1.5854920121    0.7285628811   -0.2677492024
C        0.8509527849    0.4492001620   -0.1609070818
C       -0.4995678467    0.4827997957    0.6153693932
C       -0.6900078780   -0.8132599874    1.4103095098
N       -1.5421342198   -1.6983758417    1.1864084340
C        1.3411660574   -0.8218185336   -0.8002483030
C        0.8712562991    0.0714246490   -1.6106282116
H        1.5611606265    1.1895539201    0.2180565278
H       -0.4593800297    1.2967062394    1.3500980751
H        0.0402176444   -0.9450209904    2.2254155873
H        1.7645453609   -1.7981629533   -0.6208294428
H        0.6027446112    0.4030530067   -2.6016080265
13   
Iteration 3 Energy -340.92206909
C       -2.3959378777    0.7566684974   -1.1434318143
N       -1.5698801009    0.6467718883   -0.3100613976
C        0.8600056479    0.4141354481   -0.1402680243
C       -0.5042779907    0.4700597359    0.6113472886
C       -0.6914469518   -0.7811701134    1.4771842203
N       -1.5278724054   -1.6926267641    1.3081884928
C        1.2778787558   -0.8295368104   -0.8759858317
C        0.8895468832    0.1592565537   -1.6158074959
H        1.6037228257    1.0802422749    0.3062807354
H       -0.4884136236    1.3184720033    1.3070206332
H        0.0299975763   -0.8484502078    2.3080098776
H        1.6299423920   -1.8446149582   -0.7748621953
H        0.6694146978    0.5934071571   -2.5787495012
13   
Iteration 4 Energy -340.92254959
C       -2.3154247230    0.3811267153   -1.2724177815
N       -1.5561389845    0.4547225576   -0.3739804022
C        0.8651222395    0.3176356813   -0.1129985294
C       -0.5205815711    0.4351117838    0.5926185413
C       -0.6953317636   -0.6959632484    1.6150294972
N       -1.5138552824   -1.6368124002    1.5665391556
C        1.1408557299   -0.8191820650   -1.0531630636
C        0.9679722436    0.3383939727   -1.6074217770
H        1.6611544454    0.7786272508    0.4789990727
H       -0.5413153779    1.3614970937    1.1809093940
H        0.0175783712   -0.6341379098    2.4542472211
H        1.3251150322   -1.8792225864   -1.1361248946
H        0.8958166333    0.9742928813   -2.4761131122
13   
Iteration 5 Energy -340.92292611
C       -2.2985060215    0.0739812397   -1.3076010956
N       -1.5786503741    0.2914179795   -0.3995121687
C        0.8435925605    0.1982347894   -0.1131142820
C       -0.5461645260    0.3958312327    0.5608105648
C       -0.7133450148   -0.6036735408    1.7158013472
N       -1.5412167614   -1.5332986201    1.8025625756
C        1.0545545605   -0.7793979902   -1.2272491554
C        1.0844270224    0.4698869193   -1.5682303890
H        1.6414742645    0.4248487266    0.6011518987
H       -0.5698109543    1.3880599742    1.0320491329
H        0.0117771586   -0.4430985271    2.5310274976
H        1.1109697909   -1.8231196847   -1.4964846123
H        1.1857092218    1.2495519332   -2.3073805700
13   
Iteration 6 Energy -340.92355973
C       -2.3452735284    0.1991517271   -1.2762744689
N       -1.5854371070    0.3514608202   -0.3872243493
C        0.8522626880    0.2341466314   -0.1092900133
C       -0.5371651007    0.4103300004    0.5626746955
C       -0.7056973359   -0.6336339356    1.6765710866
N       -1.5454922775   -1.5566522650    1.7107791587
C        1.1077984588   -0.8003343308   -1.1606376656
C        1.0447423489    0.4236155688   -1.5835297465
H        1.6481162654    0.5311926105    0.5828074550
H       -0.5590893146    1.3932215984    1.0539041023
H        0.0207890711   -0.5218362866    2.4980264174
H        1.2278564568   -1.8544026786   -1.3606261992
H        1.0794593826    1.1510861177   -2.3800125539
13   
Iteration 7 Energy -340.92374867
C       -2.3766067254    0.1867319877   -1.2594702086
N       -1.5963976037    0.3335452177   -0.3873530960
C        0.8511225754    0.2267444381   -0.1081300900
C       -0.5395476662    0.4076217417    0.5531478781
C       -0.7027578523   -0.6222632330    1.6801909977
N       -1.5529624249   -1.5360886486    1.7190879127
C        1.1050170659   -0.7971559331   -1.1683871728
C        1.0628429699    0.4333707951   -1.5772400748
H        1.6417374569    0.4855686593    0.6062418428
H       -0.5652924935    1.4032225328    1.0184294840
H        0.0363586439   -0.5200882231    2.4911652234
H        1.2145015957   -1.8502332975   -1.3794131565
H        1.1193562492    1.1628227835   -2.3707736879
13   
Iteration 8 Energy -340.92381920
C       -2.3967237438    0.2205040143   -1.2473548880
N       -1.5996343049    0.3406571776   -0.3869747856
C        0.8499712918    0.2341330474   -0.1101097446
C       -0.5414184195    0.4107729392    0.5530913140
C       -0.7022474903   -0.6272375493    1.6720694498
N       -1.5555863127   -1.5384298146    1.7126161260
C        1.1144187946   -0.8016303995   -1.1574999668
C        1.0642238066    0.4230907583   -1.5813183641
H        1.6369168045    0.4998894714    0.6053946474
H       -0.5706480975    1.4044807747    1.0223048289
H        0.0467762456   -0.5388309159    2.4753423505
H        1.2335432826   -1.8563473996   -1.3540675179
H        1.1178025982    1.1396012945   -2.3867639038
13   
Iteration 9 Energy -340.92389261
C       -2.4055623048    0.2104246793   -1.2483677581
N       -1.5954152186    0.3150421633   -0.3988414371
C        0.8511725459    0.2264227379   -0.1073462644
C       -0.5442410683    0.4050674563    0.5475896468
C       -0.7016300203   -0.6207586620    1.6771597200
N       -1.5646286553   -1.5217799927    1.7385239940
C        1.1071920036   -0.7987534086   -1.1675930234
C        1.0753207842    0.4326703124   -1.5738379910
H        1.6354874316    0.4678323913    0.6195971169
H       -0.5834957260    1.4040285110    1.0048542005
H        0.0580040262   -0.5332688611    2.4707041886
H        1.2142468835   -1.8521369322   -1.3774347039
H        1.1416035356    1.1565894205   -2.3718113247
13   
Iteration 10 Energy -340.92392373
C       -2.4103811614    0.2106481876   -1.2480934609
N       -1.5926266196    0.3024046294   -0.4044833596
C        0.8512235596    0.2210140720   -0.1075127668
C       -0.5458440792    0.3990430052    0.5453935369
C       -0.7048783057   -0.6201494544    1.6807866981
N       -1.5772813449   -1.5108699940    1.7553982567
C        1.1083965540   -0.7990804259   -1.1731246265
C        1.0814217039    0.4347164043   -1.5717331763
H        1.6346719476    0.4621273745    0.6203045948
H       -0.5888549279    1.3989199112    1.0001540155
H        0.0597192378   -0.5329250773    2.4697607190
H        1.2148027508   -1.8513963769   -1.3884889621
H        1.1513763551    1.1641688200   -2.3643900863
13   
Iteration 11 Energy -340.92393319
C       -2.4105000006    0.2046993530   -1.2505291155
N       -1.5906873904    0.2933180959   -0.4084946375
C        0.8513870745    0.2143219969   -0.1063591948
C       -0.5461369076    0.3935824252    0.5430712961
C       -0.7089295519   -0.6189213611    1.6844372451
N       -1.5886269950   -1.5014016389    1.7682329069
C        1.1099936848   -0.7988724301   -1.1780434866
C        1.0841187255    0.4374396678   -1.5690017034
H        1.6346774778    0.4552639393    0.6217899358
H       -0.5896267091    1.3951846754    0.9943653370
H        0.0582969189   -0.5311788493    2.4707874505
H        1.2169778046   -1.8497526833   -1.4001736164
H        1.1550847922    1.1735838162   -2.3553344366
13   
Iteration 12 Energy -340.92393503
C       -2.4111101982    0.2041673241   -1.2507167954
N       -1.5907941115    0.2922536323   -0.4090959915
C        0.8513674317    0.2128601840   -0.1059189968
C       -0.5460508189    0.3919351098    0.5423846324
C       -0.7109650786   -0.6194116909    1.6847841159
N       -1.5946675057   -1.4976622432    1.7699559133
C        1.1116309251   -0.7995276618   -1.1778546096
C        1.0845933365    0.4368026537   -1.5687269433
H        1.6345694688    0.4563457289    0.6215396309
H       -0.5891747383    1.3938471473    0.9932493206
H        0.0577239586   -0.5341030058    2.4699564935
H        1.2202410236   -1.8501712107   -1.4004784514
H        1.1549437013    1.1740660119   -2.3540196039
13   
Iteration 13 Energy -340.92393597
C       -2.4111402799    0.2026962393   -1.2516743387
N       -1.5911850048    0.2917677089   -0.4098003976
C        0.8510318752    0.2114806834   -0.1053728201
C       -0.5463617317    0.3910235469    0.5417765794
C       -0.7129411784   -0.6196571954    1.6847208373
N       -1.6001689045   -1.4941267711    1.7718293304
C        1.1125570048   -0.8001668079   -1.1776451521
C        1.0852360178    0.4362522959   -1.5681875304
H        1.6338654909    0.4552612457    0.6224118652
H       -0.5893072215    1.3932559631    0.9921134860
H        0.0577428187   -0.5373274221    2.4682238116
H        1.2220488687   -1.8506086017   -1.4009123136
H        1.1558812575    1.1743223313   -2.3526622604
13   
Iteration 14 Energy -340.92393685
C       -2.4106304186    0.2016434856   -1.2536350111
N       -1.5916460725    0.2921137263   -0.4109716390
C        0.8505442847    0.2106525524   -0.1046205955
C       -0.5471180649    0.3903814152    0.5412256537
C       -0.7156326183   -0.6205497432    1.6837806712
N       -1.6079499457   -1.4896035496    1.7729662364
C        1.1132285971   -0.8014609487   -1.1761916111
C        1.0859405972    0.4346775723   -1.5675620981
H        1.6328463379    0.4548657489    0.6235933265
H       -0.5901555992    1.3925542821    0.9917725721
H        0.0582005189   -0.5436702103    2.4647137757
H        1.2234593352   -1.8519288057   -1.3990571678
H        1.1571058385    1.1726621823   -2.3520437099
13   
Iteration 15 Energy -340.92393735
C       -2.4093978887    0.1999085919   -1.2566359344
N       -1.5919697625    0.2921670468   -0.4126529334
C        0.8498495801    0.2095144247   -0.1039033013
C       -0.5483575427    0.3898718899    0.5406531882
C       -0.7185192312   -0.6211692732    1.6828381136
N       -1.6155366440   -1.4850966800    1.7747496805
C        1.1130706072   -0.8028110088   -1.1752378127
C        1.0870873750    0.4333663429   -1.5665131940
H        1.6314500230    0.4525148942    0.6254622514
H       -0.5915742022    1.3919550453    0.9913873177
H        0.0583781528   -0.5492522828    2.4611975957
H        1.2230082185   -1.8532940491   -1.3981649175
H        1.1597937814    1.1713562667   -2.3508506058
13   
Iteration 16 Energy -340.92393750
C       -2.4082697005    0.1997806033   -1.2589500878
N       -1.5919836324    0.2925501438   -0.4139153352
C        0.8494456628    0.2090048281   -0.1035215228
C       -0.5492872430    0.3897252763    0.5403625909
C       -0.7203531998   -0.6216373535    1.6820155257
N       -1.6194940397   -1.4832655350    1.7748934475
C        1.1125930831   -0.8038593268   -1.1744407379
C        1.0877124558    0.4323055859   -1.5658341082
H        1.6306170023    0.4512506867    0.6265532477
H       -0.5925145822    1.3915726024    0.9915665251
H        0.0577514544   -0.5521027129    2.4593995950
H        1.2218970560   -1.8544681359   -1.3970034534
H        1.1614659256    1.1698483446   -2.3505149677
13   
Iteration 17 Energy -340.92393753
C       -2.4075590621    0.2000567085   -1.2605904765
N       -1.5919765546    0.2927162737   -0.4148594095
C        0.8491537523    0.2082914886   -0.1032984894
C       -0.5499356369    0.3895703516    0.5400610222
C       -0.7217206162   -0.6217165289    1.6815939820
N       -1.6214931085   -1.4826765917    1.7746201018
C        1.1121592091   -0.8046273464   -1.1742267245
C        1.0882746876    0.4316662762   -1.5653018102
H        1.6300126042    0.4497999880    0.6273620965
H       -0.5929551732    1.3913669357    0.9913752343
H        0.0563944564   -0.5526705188    2.4590206016
H        1.2207765693   -1.8552926659   -1.3967983079
H        1.1629508993    1.1690489103   -2.3500636635
