13   
Climbing Image - Chain 63 Image 4 Energy  -340.8265704475 (+62.734 kcal/mol) RMSGrad 0.024 eV/Ang
C       -3.1278834243   -0.2511707271   -0.8524463185
N       -2.1973747951   -0.0814774329   -0.1421329970
C        0.8170509972   -0.3696430571   -0.2371029239
C       -0.0351872161    0.3915743683    0.7007363674
C       -0.4552054944   -0.1516717244    2.0103010652
N        0.5730936157    0.4540461764    2.3457934809
C        0.6324812538   -0.1735490379   -1.7241107055
C        1.6953011192    0.3707080889   -1.2347945205
H        1.1299079079   -1.3462421001    0.1410944896
H       -0.3477534644    1.3914507018    0.4283749410
H       -1.2390873889   -0.7818523565    2.4239934231
H       -0.0474299159   -0.4003520869   -2.5315164976
H        2.6010234033    0.9502007097   -1.3286627232
