13   
step_00 start
C       -1.6735909488   -1.3939113785   -0.0097659558
N       -2.2935461489   -1.5270423395   -1.0032816082
C        0.6011567252    1.0515033927   -0.3210429685
C        0.4184869597    0.5984154640    1.0655412364
C       -0.2468237743   -0.4879826325    1.6461017911
N       -1.1088234092   -1.3846614872    1.1714985363
C        1.2520362690    0.1322465549   -1.3700554611
C        0.0099467430    0.4061074395   -1.5643908690
H        0.8644915647    2.1123202559   -0.3670475132
H        0.9606275678    1.2019605846    1.7938763416
H       -0.0339391149   -0.6420681006    2.7040414639
H        2.1819989932   -0.3542183075   -1.6188772245
H       -0.9072550996    0.2989964261   -2.1210334293
13   
step_00 end
C       -1.4037980598   -1.5231395281   -0.0289933919
N       -2.0754597696   -1.6299732178   -0.9828989761
C        0.3106346179    1.3083189672   -0.1689119050
C        0.1781842209    0.7915571040    1.0828056814
C       -0.0292538103   -0.5600594109    1.5697435686
N       -0.6888774117   -1.5688667853    1.0892006376
C        0.7654662164   -0.5561932395   -1.7887290079
C        0.4456497253    0.6928329286   -1.4886614275
H        0.3969043460    2.3943893188   -0.2020157297
H        0.2945101829    1.5053497842    1.8980107177
H        0.4029919850   -0.7533764285    2.5545223749
H        1.0190796421   -1.4871164759   -1.3021337907
H        0.3185810482    1.3919218097   -2.3187170179
