3    
IRC reactant Energy -92.35406011
C        0.0338115063   -0.0049003578   -0.0002822870
N       -1.0997915701    0.0861999631    0.0008886106
H        1.0807825769   -0.0890390299   -0.0013637002
