3    
Iteration 0 Energy -92.35406011
C        0.0338115063   -0.0049003578   -0.0002822870
N       -1.0997915701    0.0861999631    0.0008886106
H        1.0807825769   -0.0890390299   -0.0013637002
3    
Iteration 1 Energy -92.35406017
C        0.0338129012   -0.0049005627   -0.0002822879
N       -1.0996569191    0.0861891701    0.0008884710
H        1.0806465310   -0.0890280320   -0.0013635597
