3    
IRC product Energy -92.33969060
C       -0.5279870522   -0.9664206149    0.0013094749
N        0.0280899106    0.0512186862    0.0003990884
H        0.5001031997    0.9139110249    0.0011373194
