3    
Iteration 0 Energy -92.33969060
C       -0.5279870522   -0.9664206149    0.0013094749
N        0.0280899106    0.0512186862    0.0003990884
H        0.5001031997    0.9139110249    0.0011373194
3    
Iteration 1 Energy -92.33969070
C       -0.5279757187   -0.9663408237    0.0012284575
N        0.0281920628    0.0512763144    0.0005754109
H        0.4999897141    0.9137736055    0.0010420143
