13   
Iteration 7 Energy -340.92393738
C       -2.3529462870    0.3319045554   -1.2810367057
N       -1.5421395555    0.4137860973   -0.4295983527
C        0.8886526096    0.2177889071   -0.0891278586
C       -0.5051281960    0.4918755206    0.5324039884
C       -0.7382102267   -0.4683465655    1.7067785736
N       -1.6811037770   -1.2792389870    1.8201574433
C        1.1090489314   -0.8412598275   -1.1244244365
C        1.1529623589    0.3813826683   -1.5547124136
H        1.6739609935    0.4423948729    0.6421777269
H       -0.5013712448    1.5099340955    0.9480072091
H        0.0352725067   -0.4106301080    2.4897211317
H        1.1655460205   -1.9027904080   -1.3120601963
H        1.2738244304    1.0882152300   -2.3615362284
