13   
Iteration 0 Energy -340.96809908
C       -2.0302798463    0.2595637458   -0.0552344320
N       -2.4706721403   -0.0883917463   -1.0916272773
C        1.3122784458   -0.0021666484   -0.0152641930
C        0.7739834908    0.7595255482    1.1212926858
C       -0.5173143324    0.9605768057    1.6231202450
N       -1.7303102562    0.6962135836    1.1422144755
C        1.0725213098   -1.5184650821   -0.1282202765
C        0.5054661490   -0.7964284522   -1.0298032185
H        2.2997983207    0.3621701947   -0.3134763856
H        1.5454161500    1.2210190909    1.7382357990
H       -0.5581950936    1.4368137088    2.6028234363
H        1.3014110972   -2.4569126972    0.3516772300
H       -0.1299242773   -0.6876341279   -1.8941322011
13   
Iteration 1 Energy -340.96809909
C       -2.0301578823    0.2597518800   -0.0552950705
N       -2.4705180516   -0.0880871765   -1.0917405825
C        1.3125093535   -0.0021893074   -0.0150681773
C        0.7740897064    0.7594479768    1.1214676085
C       -0.5172409540    0.9605386178    1.6232031703
N       -1.7302244862    0.6962744388    1.1422088951
C        1.0727526678   -1.5184782499   -0.1281291043
C        0.5058242915   -0.7963929652   -1.0297533506
H        2.3000701903    0.3621531391   -0.3131401136
H        1.5454805253    1.2208825475    1.7385065514
H       -0.5581704883    1.4367384128    2.6029220521
H        1.3015698722   -2.4569518255    0.3517522189
H       -0.1294506779   -0.6875493273   -1.8941607534
