13   
Iteration 0 Energy -340.92501853
C       -2.6999419983    1.0435825879   -1.1828412827
N       -1.5956847786    1.4529649927   -1.6235497414
C        0.4724400473    0.0629673195   -1.3917731775
C       -0.6159185540    0.8572937439   -0.6655738687
C       -1.5183889869    0.0923085813    0.2771913994
N       -2.7684783610    0.2099117144   -0.0289726590
C        1.1602966285   -1.1271393757   -0.7731946480
C        0.3227657927   -1.3967977276   -1.7256661631
H        1.0284538126    0.7095803085   -2.0769526571
H       -0.1481266708    1.6947552348   -0.1238904293
H       -1.1928089206   -0.4933320517    1.1344254181
H        1.8855742807   -1.4576315679   -0.0439785343
H       -0.1627117288   -2.1134350431   -2.3710616515
13   
Iteration 1 Energy -340.92501853
C       -2.7004346995    1.0424450709   -1.1825486704
N       -1.5963623042    1.4522245815   -1.6233531777
C        0.4722448638    0.0628774748   -1.3918903509
C       -0.6162888485    0.8568155070   -0.6655246469
C       -1.5184043221    0.0914920023    0.2773060727
N       -2.7685669451    0.2087059313   -0.0287059424
C        1.1605609466   -1.1270331376   -0.7734546655
C        0.3230087601   -1.3969215752   -1.7258418373
H        1.0279672750    0.7097061009   -2.0771027435
H       -0.1487049750    1.6944015814   -0.1238531934
H       -1.1925362341   -0.4940830099    1.1344751576
H        1.8860322172   -1.4573242698   -0.0443402151
H       -0.1623082346   -2.1136856595   -2.3712174911
