13   
Iteration 0 Energy -340.92654344
C       -3.0990601904   -0.2984773359   -0.2351331981
N       -2.0109979023   -0.0096569012    0.1166586549
C        0.3488673542   -0.4727101072   -0.3148742004
C       -0.6797489489    0.2886882913    0.5378607172
C       -0.5215854229   -0.0900144149    2.0205676876
N       -0.0460119113    0.6866195530    2.8744100090
C        0.9837775304    0.1696132094   -1.5160483772
C        1.7453139367    0.0572347710   -0.4731342338
H        0.1684535990   -1.5528594647   -0.3037412098
H       -0.5105112264    1.3650522629    0.4390087628
H       -0.8244719903   -1.1147720116    2.2864804942
H        0.8316833684    0.4663432190   -2.5427958191
H        2.6998661076    0.1915868414    0.0130009763
13   
Iteration 1 Energy -340.92654345
C       -3.0988874419   -0.2982406541   -0.2351121770
N       -2.0107916330   -0.0095274647    0.1166663716
C        0.3489861357   -0.4726458742   -0.3150674342
C       -0.6795093500    0.2886940696    0.5378422371
C       -0.5212704840   -0.0902107060    2.0205008418
N       -0.0456827152    0.6863333758    2.8744170016
C        0.9838756404    0.1697606279   -1.5162128359
C        1.7454483356    0.0572132839   -0.4733305387
H        0.1684930965   -1.5527844431   -0.3040631483
H       -0.5102100732    1.3650601934    0.4391272318
H       -0.8242169494   -1.1149769146    2.2863150134
H        0.8317552253    0.4665968417   -2.5429282170
H        2.7000310262    0.1914255107    0.0127840224
