13   
IRC reactant Energy -340.96809862
C       -1.6663647582   -1.2130326226    0.1826116262
N       -2.2657469070   -1.3967970075   -0.8154377874
C        0.7769369193    1.0349490248   -0.2766805106
C        0.5249687082    0.7297372299    1.1394283497
C       -0.2278309143   -0.2512416290    1.7955155748
N       -1.1355714711   -1.1306259935    1.3767756810
C        1.4138307110   -0.0160641158   -1.2036162322
C        0.1958768004    0.2996455073   -1.4734371798
H        1.0994197450    2.0711935125   -0.4150008942
H        1.0858527109    1.3642590664    1.8261881054
H       -0.0555777625   -0.3179368680    2.8698442393
H        2.3243233689   -0.5708540682   -1.3666861001
H       -0.7058612720    0.1843173499   -2.0532575690
