13   
Iteration 0 Energy -340.96809862
C       -1.6663647582   -1.2130326226    0.1826116262
N       -2.2657469070   -1.3967970075   -0.8154377874
C        0.7769369193    1.0349490248   -0.2766805106
C        0.5249687082    0.7297372299    1.1394283497
C       -0.2278309143   -0.2512416290    1.7955155748
N       -1.1355714711   -1.1306259935    1.3767756810
C        1.4138307110   -0.0160641158   -1.2036162322
C        0.1958768004    0.2996455073   -1.4734371798
H        1.0994197450    2.0711935125   -0.4150008942
H        1.0858527109    1.3642590664    1.8261881054
H       -0.0555777625   -0.3179368680    2.8698442393
H        2.3243233689   -0.5708540682   -1.3666861001
H       -0.7058612720    0.1843173499   -2.0532575690
13   
Iteration 1 Energy -340.96809639
C       -1.6620947726   -1.2121255277    0.1797842373
N       -2.2582572423   -1.3965169424   -0.8200778930
C        0.7768706184    1.0348317428   -0.2758429629
C        0.5258554006    0.7305848798    1.1406149415
C       -0.2277847370   -0.2500765254    1.7961858246
N       -1.1349109292   -1.1291672412    1.3755164939
C        1.4111285583   -0.0175500557   -1.2030707462
C        0.1932211045    0.2995831856   -1.4713970158
H        1.1004775391    2.0705906781   -0.4150698100
H        1.0873933756    1.3646974168    1.8271404454
H       -0.0566098030   -0.3171958929    2.8706544735
H        2.3206519873   -0.5736592790   -1.3670408391
H       -0.7094544686    0.1850467755   -2.0499531089
13   
Iteration 2 Energy -340.96809783
C       -1.6642835882   -1.2119475812    0.1810034383
N       -2.2623559561   -1.3953911963   -0.8178918922
C        0.7766150852    1.0347754761   -0.2762624331
C        0.5254003893    0.7302299197    1.1401000351
C       -0.2275288910   -0.2508708690    1.7958334292
N       -1.1349082871   -1.1300229822    1.3758376759
C        1.4126109785   -0.0168366603   -1.2031658496
C        0.1945429510    0.2990208963   -1.4722698371
H        1.0992199255    2.0708812784   -0.4152503974
H        1.0864488797    1.3647339051    1.8266759834
H       -0.0557393531   -0.3180223591    2.8702028775
H        2.3228509460   -0.5719279214   -1.3666100873
H       -0.7076298804    0.1835886414   -2.0514259690
