13   
Climbing Image - Chain 100 Image 3 Energy  -340.8954886288 (+45.564 kcal/mol) RMSGrad 0.221 eV/Ang
C       -2.2077100871    1.1315528215    0.1417146246
N       -1.3228595664    1.9065534433   -0.1224799182
C        0.9929956628    0.3165916637   -0.4124869971
C        0.0313253720    0.5802914970    0.6843184879
C       -1.0176893857   -0.4017163229    1.0583126548
N       -2.2539512821   -0.1227735326    0.7761972826
C        1.5271142893   -1.0899257370   -0.5888688111
C        0.7364097685   -0.6844984304   -1.5283654359
H        1.6186757661    1.1863713468   -0.6302585015
H        0.3971798171    1.1885366270    1.5164301343
H       -0.8146476045   -1.3419570379    1.5825039194
H        2.0734294960   -1.8504923559   -0.0563241448
H        0.2441230414   -0.8714502831   -2.4746138591
