13   
Iteration 1 Energy -340.92257160
C       -2.1493903218    2.6807027882    0.0191083789
N       -1.4467597900    1.8085581564    0.3861816039
C        0.4775171920    0.5020178363   -0.3245971076
C       -0.5630200240    0.7650057788    0.7852515981
C       -1.3218875940   -0.5020147657    1.1878511421
N       -2.5589172581   -0.6659147327    1.1436313839
C        1.0688251073   -0.8548535726   -0.5871233246
C        0.2100400853   -0.4368157296   -1.4645436537
H        1.0786035692    1.4009877298   -0.4973745377
H       -0.0320368589    1.1099353292    1.6847929473
H       -0.6750730889   -1.3160565784    1.5516014651
H        1.7718097749   -1.6017678749   -0.2488495496
H       -0.3326156140   -0.5750745379   -2.3872167221
