13   
Iteration 0 Energy -340.92257160
C       -2.1493903218    2.6807027882    0.0191083789
N       -1.4467597900    1.8085581564    0.3861816039
C        0.4775171920    0.5020178363   -0.3245971076
C       -0.5630200240    0.7650057788    0.7852515981
C       -1.3218875940   -0.5020147657    1.1878511421
N       -2.5589172581   -0.6659147327    1.1436313839
C        1.0688251073   -0.8548535726   -0.5871233246
C        0.2100400853   -0.4368157296   -1.4645436537
H        1.0786035692    1.4009877298   -0.4973745377
H       -0.0320368589    1.1099353292    1.6847929473
H       -0.6750730889   -1.3160565784    1.5516014651
H        1.7718097749   -1.6017678749   -0.2488495496
H       -0.3326156140   -0.5750745379   -2.3872167221
13   
Iteration 1 Energy -340.92257160
C       -2.1491605080    2.6809067794    0.0184586959
N       -1.4466555696    1.8087290572    0.3856942135
C        0.4776409536    0.5020199018   -0.3247170448
C       -0.5630569280    0.7651289046    0.7849502314
C       -1.3220791326   -0.5018215720    1.1874758106
N       -2.5591189151   -0.6655894330    1.1430447093
C        1.0689015251   -0.8549093131   -0.5870447465
C        0.2102988412   -0.4368741460   -1.4646453104
H        1.0788140536    1.4009399123   -0.4974520818
H       -0.0321910092    1.1100553863    1.6845619879
H       -0.6754039795   -1.3159141304    1.5513638801
H        1.7717780974   -1.6018461794   -0.2485966079
H       -0.3322077045   -0.5751628241   -2.3874017367
