3    
IRC product Energy -92.33969016
C       -0.5466752374   -0.9552170652    0.0052463221
N        0.0344227098    0.0483597202    0.0010770474
H        0.5270550407    0.8991179203   -0.0070807462
