3    
Iteration 0 Energy -92.33969016
C       -0.5466752374   -0.9552170652    0.0052463221
N        0.0344227098    0.0483597202    0.0010770474
H        0.5270550407    0.8991179203   -0.0070807462
3    
Iteration 1 Energy -92.33969047
C       -0.5466766827   -0.9552177562    0.0054943775
N        0.0344223611    0.0483550228    0.0005372589
H        0.5270568348    0.8991233087   -0.0067890131
