13   
Climbing Image - Chain 45 Image 6 Energy  -340.8966464738 (+17.803 kcal/mol) RMSGrad 0.039 eV/Ang
C       -2.5040688303    0.6139211433   -0.2028366554
N       -1.4730964475    1.2401997237   -0.0978310176
C        0.9207986141    0.5549774031   -0.2363656985
C       -0.3496505966    0.6291466020    0.6299147575
C       -0.8770214067   -0.7236331356    1.1017888485
N       -2.0545653630   -1.0713981631    0.8147625226
C        1.5505345539   -0.7564453116   -0.6351691077
C        0.9043570273   -0.1358742703   -1.5696832110
H        1.5531172972    1.4397673556   -0.1078929100
H       -0.1449723931    1.2555789761    1.5086843669
H       -0.2411462930   -1.3867724458    1.6956553849
H        2.1490580617   -1.5945131593   -0.3099414312
H        0.5646123433   -0.0666017915   -2.5919537753
