13   
Iteration 0 Energy -340.96809844
C       -1.4761339403   -1.6035987713    0.0488098719
N       -1.7141454460   -2.1847282225   -0.9485770898
C        0.6005725540    0.9693623056   -0.5156245106
C       -0.0082954375    0.9944146012    0.8222562146
C       -0.7558980730    0.0686448612    1.5598132898
N       -1.3449607511   -1.0823601150    1.2427686564
C        1.6273673166   -0.1134719312   -0.8928075198
C        0.5082408525   -0.1633767638   -1.5257513291
H        0.7921100579    1.9791930317   -0.8902568231
H        0.2145161034    1.9024244058    1.3830845157
H       -0.9025603260    0.3306767468    2.6077293350
H        2.6171958462   -0.4704578259   -0.6557599907
H       -0.1580087567   -0.6267223225   -2.2356846203
13   
Iteration 1 Energy -340.96809810
C       -1.4786299475   -1.6042339850    0.0498316336
N       -1.7179043109   -2.1855757051   -0.9471215305
C        0.6010778646    0.9697932654   -0.5158519886
C       -0.0080466386    0.9938579554    0.8219514917
C       -0.7558578868    0.0682070741    1.5594675626
N       -1.3460153414   -1.0825455217    1.2434546060
C        1.6287398288   -0.1122345224   -0.8929988705
C        0.5099051067   -0.1625732439   -1.5264361921
H        0.7921870736    1.9798979327   -0.8899895469
H        0.2149790136    1.9015705767    1.3831773611
H       -0.9018942053    0.3304725552    2.6074142239
H        2.6187057700   -0.4686585459   -0.6556872293
H       -0.1558035010   -0.6260657305   -2.2367778803
13   
Iteration 2 Energy -340.96809855
C       -1.4776518044   -1.6034894937    0.0491020723
N       -1.7165002356   -2.1842860388   -0.9482689588
C        0.6007422322    0.9695856046   -0.5157677908
C       -0.0080683420    0.9941039542    0.8221610364
C       -0.7556889954    0.0683340940    1.5596863461
N       -1.3454883931   -1.0824217313    1.2430562680
C        1.6282719186   -0.1126198519   -0.8927569822
C        0.5092725864   -0.1631469710   -1.5259044317
H        0.7917978929    1.9795493620   -0.8903136157
H        0.2149892910    1.9019117912    1.3832221013
H       -0.9018342598    0.3303233846    2.6076887386
H        2.6182791146   -0.4689994429   -0.6555503031
H       -0.1566366523   -0.6268771969   -2.2359082686
13   
Iteration 3 Energy -340.96809872
C       -1.4779804381   -1.6018983317    0.0480839831
N       -1.7169660301   -2.1814808220   -0.9499479704
C        0.6005186163    0.9696621967   -0.5157504455
C       -0.0076320484    0.9941155537    0.8225070890
C       -0.7552328263    0.0682768406    1.5599609340
N       -1.3455936805   -1.0820114955    1.2425665453
C        1.6287654578   -0.1120260043   -0.8923505506
C        0.5095886853   -0.1637279068   -1.5251023511
H        0.7907916795    1.9795801479   -0.8908414145
H        0.2161493118    1.9016175541    1.3837800687
H       -0.9008361243    0.3296247964    2.6082043594
H        2.6191131078   -0.4675169554   -0.6552425119
H       -0.1563065451   -0.6284181135   -2.2344946124
13   
Iteration 4 Energy -340.96809883
C       -1.4791141553   -1.5998289800    0.0470358163
N       -1.7187382302   -2.1780079953   -0.9516478959
C        0.6002873365    0.9697973724   -0.5156732917
C       -0.0068422983    0.9941370759    0.8230910074
C       -0.7545540872    0.0681975842    1.5602692992
N       -1.3459777717   -1.0813510633    1.2420749857
C        1.6298052507   -0.1109010407   -0.8918375644
C        0.5106289559   -0.1640952828   -1.5244847408
H        0.7894034248    1.9797792598   -0.8911671828
H        0.2180814593    1.9010841704    1.3848297383
H       -0.8992957919    0.3286639546    2.6088469252
H        2.6206184282   -0.4650859831   -0.6547310748
H       -0.1548952423   -0.6299026172   -2.2334999250
13   
Iteration 5 Energy -340.96809890
C       -1.4806937903   -1.5977608040    0.0462369040
N       -1.7210595674   -2.1747575748   -0.9529518781
C        0.6004664201    0.9701291651   -0.5155385187
C       -0.0059559124    0.9937390916    0.8235989599
C       -0.7540657214    0.0681228077    1.5607415959
N       -1.3467420183   -1.0805704094    1.2417499571
C        1.6313104302   -0.1094198912   -0.8915676352
C        0.5120433634   -0.1640999093   -1.5239693197
H        0.7883514782    1.9802849638   -0.8911991293
H        0.2201389144    1.9000583664    1.3858757335
H       -0.8979896058    0.3279066227    2.6096003853
H        2.6226347433   -0.4622881677   -0.6546427116
H       -0.1531257532   -0.6309530578   -2.2326409045
13   
Iteration 6 Energy -340.96809902
C       -1.4824700733   -1.5958333625    0.0452636664
N       -1.7237618217   -2.1719772763   -0.9542034845
C        0.6010108490    0.9708530186   -0.5151131605
C       -0.0046303276    0.9938673694    0.8244190796
C       -0.7534089386    0.0681254839    1.5606685316
N       -1.3475320324   -1.0796678456    1.2410854519
C        1.6329335493   -0.1077224106   -0.8911548993
C        0.5134567617   -0.1637197369   -1.5231220007
H        0.7877778847    1.9811480291   -0.8909736510
H        0.2227398299    1.8993444614    1.3875546429
H       -0.8966401972    0.3269615168    2.6098442072
H        2.6247513412   -0.4594440860   -0.6545970527
H       -0.1515032553   -0.6315134869   -2.2313818857
13   
Iteration 7 Energy -340.96809903
C       -1.4835953343   -1.5938832963    0.0445448572
N       -1.7254249346   -2.1693713982   -0.9551848638
C        0.6014953463    0.9712896259   -0.5145351822
C       -0.0034580749    0.9938364099    0.8253508752
C       -0.7529668715    0.0683752849    1.5611588375
N       -1.3481407457   -1.0786315864    1.2406750166
C        1.6342387668   -0.1063980627   -0.8909358638
C        0.5147676078   -0.1630121290   -1.5228819483
H        0.7874922468    1.9818159228   -0.8901612738
H        0.2250226998    1.8986659552    1.3890911362
H       -0.8957736287    0.3265630465    2.6105535737
H        2.6263942466   -0.4573844161   -0.6547033428
H       -0.1497836521   -0.6310855084   -2.2313459649
13   
Iteration 8 Energy -340.96809903
C       -1.4839282336   -1.5927572915    0.0440473338
N       -1.7258078070   -2.1679707571   -0.9558374350
C        0.6021652703    0.9718166322   -0.5139431228
C       -0.0026093527    0.9939395991    0.8260451950
C       -0.7527403908    0.0686381205    1.5613935580
N       -1.3484616105   -1.0779211943    1.2403311320
C        1.6349494006   -0.1056242274   -0.8908378521
C        0.5153192801   -0.1622454033   -1.5225190575
H        0.7879821195    1.9824664759   -0.8893572567
H        0.2264191019    1.8983660934    1.3902060771
H       -0.8955733959    0.3264751756    2.6108710027
H        2.6272327268   -0.4565302561   -0.6550195816
H       -0.1492386456   -0.6302063370   -2.2310511089
