13   
Iteration 1 Energy -340.92501835
C       -2.2419612040    1.2996925069    0.0566471360
N       -1.0841895728    1.7741131793   -0.0686748808
C        0.8705897170    0.2809685799   -0.5296316656
C       -0.2188503354    0.6808164525    0.4683934467
C       -1.2360257859   -0.3746476307    0.8422757106
N       -2.4495230525   -0.0005982270    0.6018922631
C        1.4327232467   -1.1156818250   -0.6038871451
C        0.6559379469   -0.7716966231   -1.5834976791
H        1.5172415097    1.1338650652   -0.7557881037
H        0.2570680500    1.0692104770    1.3828547186
H       -1.0134470592   -1.3467789949    1.2773019609
H        2.0774516957   -1.8430367810   -0.1324099144
H        0.1777386349   -0.9998114243   -2.5242815469
13   
Iteration 0 Energy -340.92501833
C       -2.2413523869    1.3007177477    0.0569421323
N       -1.0834184079    1.7747156944   -0.0685443810
C        0.8707566119    0.2809700008   -0.5294536558
C       -0.2184476528    0.6811966536    0.4686277491
C       -1.2358807607   -0.3739397773    0.8426793718
N       -2.4492543433    0.0005321236    0.6023272047
C        1.4323281570   -1.1158781039   -0.6037027053
C        0.6556939038   -0.7715964789   -1.5833338916
H        1.5177019082    1.1336386957   -0.7556438058
H        0.2576453074    1.0695715219    1.3830116725
H       -1.0135836824   -1.3461253379    1.2777578295
H        2.0767731688   -1.8434812858   -0.1322188436
H        0.1774079916   -0.9995143380   -2.5241207299
13   
Iteration 33 Energy -340.92501833
C       -2.2413523737    1.3007178030    0.0569421747
N       -1.0834183855    1.7747157315   -0.0685443159
C        0.8707565950    0.2809700046   -0.5294536771
C       -0.2184476518    0.6811966453    0.4686277553
C       -1.2358807835   -0.3739397795    0.8426793328
N       -2.4492543589    0.0005321578    0.6023271848
C        1.4323281925   -1.1158780818   -0.6037026929
C        0.6556939034   -0.7715965186   -1.5833338728
H        1.5177018552    1.1336387164   -0.7556438658
H        0.2576453268    1.0695714563    1.3830116936
H       -1.0135837260   -1.3461253646    1.2777577454
H        2.0767732421   -1.8434812244   -0.1322188223
H        0.1774079792   -0.9995144300   -2.5241206925
13   
Iteration 32 Energy -340.92501464
C       -2.2435448875    1.2901622111    0.0486896161
N       -1.0878751248    1.7692025031   -0.0783063548
C        0.8735187592    0.2808103887   -0.5259994118
C       -0.2182535405    0.6836753138    0.4679977077
C       -1.2312868607   -0.3733685143    0.8488704014
N       -2.4460463853   -0.0067519007    0.6039237501
C        1.4254475434   -1.1197327962   -0.6055148698
C        0.6551950200   -0.7646078878   -1.5862379532
H        1.5272213532    1.1300004580   -0.7457445034
H        0.2552042505    1.0804872517    1.3799685713
H       -1.0047928805   -1.3408647777    1.2920164494
H        2.0627625896   -1.8543775027   -0.1352962758
H        0.1788199779   -0.9838276311   -2.5300391802
13   
Iteration 31 Energy -340.92500716
C       -2.2457018832    1.2797984304    0.0406046329
N       -1.0920774037    1.7630778376   -0.0884731716
C        0.8762289032    0.2806131835   -0.5226215795
C       -0.2180243586    0.6859770073    0.4676797474
C       -1.2266063433   -0.3727284331    0.8550322797
N       -2.4428215047   -0.0139040488    0.6055772518
C        1.4186518310   -1.1235735011   -0.6074616032
C        0.6547487018   -0.7576273856   -1.5891089797
H        1.5367435783    1.1262551141   -0.7357248193
H        0.2524583815    1.0922972329    1.3772525146
H       -0.9961720108   -1.3359356349    1.3059791405
H        2.0488368988   -1.8652918109   -0.1386735909
H        0.1801050244   -0.9681508755   -2.5357338757
13   
Iteration 30 Energy -340.92499727
C       -2.2473281689    1.2700020718    0.0331808689
N       -1.0958397446    1.7583123967   -0.0968784307
C        0.8787269155    0.2803192794   -0.5194350486
C       -0.2179594901    0.6880004617    0.4666179071
C       -1.2227017563   -0.3722819804    0.8607949618
N       -2.4398286876   -0.0202856699    0.6073091938
C        1.4122954854   -1.1266503522   -0.6090936716
C        0.6544033907   -0.7512979170   -1.5917913285
H        1.5449747118    1.1228202793   -0.7268821379
H        0.2502927188    1.1009468749    1.3737551256
H       -0.9884843529   -1.3306898134    1.3191629341
H        2.0359326142   -1.8743872227   -0.1412479373
H        0.1818861787   -0.9540012923   -2.5411644896
13   
Iteration 29 Energy -340.92498245
C       -2.2497423363    1.2599071324    0.0252965098
N       -1.1000905263    1.7513112845   -0.1076298309
C        0.8813146181    0.2800430044   -0.5160919627
C       -0.2176243003    0.6903898361    0.4670798758
C       -1.2180966068   -0.3712012004    0.8668361276
N       -2.4368509977   -0.0273283537    0.6088085548
C        1.4060195738   -1.1307912638   -0.6113965807
C        0.6541477817   -0.7443910454   -1.5943640913
H        1.5543668870    1.1188501173   -0.7167042272
H        0.2475050689    1.1137705472    1.3717173274
H       -0.9803530530   -1.3256772387    1.3326845760
H        2.0227713183   -1.8856424818   -0.1456939498
H        0.1830023875   -0.9384332222   -2.5462143819
13   
Iteration 28 Energy -340.92495108
C       -2.2529069606    1.2415570544    0.0134418038
N       -1.1073747689    1.7419517143   -0.1232869342
C        0.8859478432    0.2792163736   -0.5107338236
C       -0.2182203242    0.6936657996    0.4636279023
C       -1.2109444681   -0.3702565960    0.8778425309
N       -2.4315131016   -0.0385169055    0.6145613305
C        1.3936708946   -1.1363368253   -0.6145293876
C        0.6548157297   -0.7324821123   -1.6002929504
H        1.5701119410    1.1116763759   -0.6997820080
H        0.2424559309    1.1302845245    1.3636167942
H       -0.9657694419   -1.3157974642    1.3573054489
H        1.9970081511   -1.9024745984   -0.1497985893
H        0.1890883897   -0.9116802247   -2.5576441703
13   
Iteration 27 Energy -340.92490049
C       -2.2592093669    1.2209575636    0.0010419896
N       -1.1176001204    1.7274407166   -0.1449811856
C        0.8914416669    0.2780305670   -0.5047723109
C       -0.2183485165    0.6978218357    0.4615953230
C       -1.2026178074   -0.3677975942    0.8910316479
N       -2.4262579010   -0.0510910298    0.6229932477
C        1.3802841420   -1.1443954565   -0.6193897616
C        0.6573273785   -0.7182807779   -1.6073791556
H        1.5892591701    1.1023914674   -0.6786242266
H        0.2364521765    1.1528464682    1.3553037716
H       -0.9496610764   -1.3032689951    1.3857531105
H        1.9676625330   -1.9244210613   -0.1574125292
H        0.1976375365   -0.8794265880   -2.5708319737
13   
Iteration 26 Energy -340.92484664
C       -2.2638759621    1.2039349367   -0.0061059827
N       -1.1260456402    1.7159792336   -0.1618641724
C        0.8959243288    0.2764758299   -0.5006938743
C       -0.2202153629    0.7000721030    0.4562884211
C       -1.1965221182   -0.3659560541    0.9025664556
N       -2.4227125335   -0.0597061367    0.6343354966
C        1.3687829010   -1.1505686373   -0.6236358324
C        0.6615517057   -0.7065583063   -1.6150142905
H        1.6054215717    1.0937685450   -0.6605500239
H        0.2290925069    1.1708337963    1.3453721197
H       -0.9360866607   -1.2929329421    1.4105456939
H        1.9415996619   -1.9419696136   -0.1625279174
H        0.2094554162   -0.8525656384   -2.5843881461
13   
Iteration 25 Energy -340.92479036
C       -2.2705684146    1.1913033953   -0.0096642902
N       -1.1350580769    1.7051173957   -0.1774065978
C        0.8998622085    0.2747416442   -0.4976384582
C       -0.2212482987    0.7015054122    0.4519628473
C       -1.1923281447   -0.3639098056    0.9125274779
N       -2.4207891047   -0.0651039244    0.6469970000
C        1.3601190377   -1.1559210011   -0.6276209712
C        0.6670277832   -0.6971398459   -1.6220939676
H        1.6183365670    1.0863206377   -0.6452890788
H        0.2242373330    1.1833129343    1.3358846071
H       -0.9263649031   -1.2827468960    1.4305253704
H        1.9205741878   -1.9562206912   -0.1670374108
H        0.2225696402   -0.8304521393   -2.5968185808
13   
Iteration 24 Energy -340.92473399
C       -2.2749691855    1.1820937602   -0.0090964002
N       -1.1418482289    1.6964583243   -0.1889164415
C        0.9022297187    0.2732120750   -0.4965597863
C       -0.2241965724    0.7021673963    0.4461045781
C       -1.1891366281   -0.3620983163    0.9202971641
N       -2.4202606980   -0.0680758836    0.6600457206
C        1.3533034479   -1.1608268257   -0.6311493742
C        0.6732006351   -0.6898703673   -1.6288212197
H        1.6291529510    1.0795331384   -0.6324269082
H        0.2168404618    1.1965925536    1.3274076753
H       -0.9176634955   -1.2763573750    1.4463738138
H        1.9032507251   -1.9687125079   -0.1706562034
H        0.2364666837   -0.8133088561   -2.6082746713
13   
Iteration 23 Energy -340.92466217
C       -2.2834150071    1.1742524779   -0.0064685784
N       -1.1517920991    1.6883563099   -0.2009294079
C        0.9055353638    0.2712571938   -0.4949831228
C       -0.2256590441    0.7021352462    0.4396866540
C       -1.1870107486   -0.3606099574    0.9280108800
N       -2.4196553726   -0.0694038819    0.6761067106
C        1.3463438654   -1.1644204044   -0.6338815922
C        0.6806738717   -0.6831823899   -1.6362523812
H        1.6389837734    1.0730727071   -0.6205393242
H        0.2139392153    1.2022366990    1.3161323786
H       -0.9101609415   -1.2677157193    1.4600696909
H        1.8850373570   -1.9783947117   -0.1715021282
H        0.2535495812   -0.7967764533   -2.6211218320
13   
Iteration 22 Energy -340.92453041
C       -2.2936767056    1.1668719751    0.0063322594
N       -1.1664710514    1.6782487301   -0.2139263883
C        0.9078812040    0.2698549634   -0.4972391372
C       -0.2313167923    0.7036586535    0.4276486468
C       -1.1812366715   -0.3582708489    0.9357534249
N       -2.4197487891   -0.0706477849    0.7020431918
C        1.3358413989   -1.1718290879   -0.6370022527
C        0.6943209710   -0.6752784852   -1.6474283723
H        1.6541755220    1.0627100036   -0.6035266823
H        0.2019085337    1.2197066330    1.3000961273
H       -0.8950718069   -1.2613437815    1.4724928149
H        1.8564750385   -1.9954735640   -0.1705776743
H        0.2832889636   -0.7774002905   -2.6403380108
13   
Iteration 21 Energy -340.92436279
C       -2.3065752317    1.1624551688    0.0221569428
N       -1.1828722218    1.6733879502   -0.2221901675
C        0.9097554173    0.2693830366   -0.4992365991
C       -0.2354890705    0.7055341470    0.4151033531
C       -1.1769694375   -0.3570812838    0.9393206814
N       -2.4180737291   -0.0714885264    0.7255000016
C        1.3243512388   -1.1760190993   -0.6366270369
C        0.7069075271   -0.6700213778   -1.6570661208
H        1.6660367263    1.0544389649   -0.5919224681
H        0.1980963587    1.2273420321    1.2843766301
H       -0.8793438196   -1.2565804649    1.4754216059
H        1.8275716102   -2.0061776748   -0.1628943285
H        0.3129744465   -0.7643657567   -2.6576145470
13   
Iteration 20 Energy -340.92421889
C       -2.3136510165    1.1612713544    0.0350163298
N       -1.1939333893    1.6715659202   -0.2250917239
C        0.9106369363    0.2695528320   -0.5018876215
C       -0.2387490598    0.7080955374    0.4073203030
C       -1.1715897723   -0.3564617887    0.9401268406
N       -2.4166084108   -0.0728115585    0.7400440756
C        1.3170293035   -1.1798209063   -0.6359532443
C        0.7152418667   -0.6677275873   -1.6624894487
H        1.6741552201    1.0484907359   -0.5842684105
H        0.1910950701    1.2354181602    1.2735544628
H       -0.8678220191   -1.2548123655    1.4730690930
H        1.8086649736   -2.0141194643   -0.1575563189
H        0.3319001121   -0.7578337535   -2.6675563900
13   
Iteration 19 Energy -340.92409531
C       -2.3204100061    1.1604817915    0.0443857738
N       -1.2031323292    1.6718109758   -0.2270668365
C        0.9109806591    0.2692269508   -0.5026842137
C       -0.2411915791    0.7104826132    0.4011924295
C       -1.1691956968   -0.3552473755    0.9394864821
N       -2.4153651297   -0.0741454102    0.7489579695
C        1.3118272322   -1.1824114255   -0.6349046529
C        0.7205538262   -0.6665409630   -1.6655434827
H        1.6795754593    1.0439823365   -0.5795334458
H        0.1900410510    1.2410718653    1.2675179881
H       -0.8582858250   -1.2545114208    1.4696365137
H        1.7960302223   -2.0194924473   -0.1533973863
H        0.3449419305   -0.7539003749   -2.6737191917
13   
Iteration 18 Energy -340.92399814
C       -2.3241781052    1.1605372914    0.0511445266
N       -1.2090796271    1.6724097538   -0.2274356349
C        0.9118567467    0.2685162904   -0.5026284448
C       -0.2429447338    0.7129276038    0.3979331317
C       -1.1662437352   -0.3548889373    0.9392357036
N       -2.4142478814   -0.0753129852    0.7548816025
C        1.3092662933   -1.1849819407   -0.6343799927
C        0.7242080166   -0.6662261142   -1.6669892546
H        1.6830904506    1.0406053108   -0.5756638850
H        0.1856812340    1.2451644175    1.2610779815
H       -0.8523807431   -1.2528072670    1.4659887733
H        1.7888172948   -2.0238857098   -0.1519541736
H        0.3525246047   -0.7512505975   -2.6768823864
13   
Iteration 17 Energy -340.92390009
C       -2.3271318551    1.1603869260    0.0560376584
N       -1.2153574385    1.6755969068   -0.2302196145
C        0.9121407713    0.2681407621   -0.5034884223
C       -0.2437874741    0.7132998956    0.3965177217
C       -1.1645577873   -0.3541541118    0.9382692479
N       -2.4135045651   -0.0763941672    0.7587222078
C        1.3076387895   -1.1874762990   -0.6343935571
C        0.7267233456   -0.6662712618   -1.6679420047
H        1.6870795822    1.0371973663   -0.5726000558
H        0.1822317831    1.2519569567    1.2601425051
H       -0.8466343009   -1.2537142450    1.4637525367
H        1.7841930798   -2.0283018216   -0.1516963530
H        0.3573358843   -0.7494597912   -2.6787739230
13   
Iteration 16 Energy -340.92378518
C       -2.3275044500    1.1594855707    0.0597411080
N       -1.2185496289    1.6780679059   -0.2310646522
C        0.9122206099    0.2684279540   -0.5043160196
C       -0.2437027951    0.7117779275    0.3986388658
C       -1.1637725389   -0.3540714344    0.9378197108
N       -2.4129361704   -0.0777851726    0.7612676640
C        1.3074371395   -1.1888350956   -0.6343047290
C        0.7279370438   -0.6657292498   -1.6679218922
H        1.6913534831    1.0325931663   -0.5704763139
H        0.1760095208    1.2557564985    1.2556861701
H       -0.8439764219   -1.2504309466    1.4610617004
H        1.7826841670   -2.0304731032   -0.1526232676
H        0.3591698558   -0.7479769047   -2.6791803975
13   
Iteration 15 Energy -340.92303931
C       -2.3496542003    1.1611092126    0.0815611403
N       -1.2449715303    1.6778670081   -0.2358255587
C        0.9219851193    0.2629010756   -0.4955998428
C       -0.2564902239    0.7339002123    0.3809363921
C       -1.1583965380   -0.3454484244    0.9302461686
N       -2.4119372004   -0.0830018413    0.7680061789
C        1.3099658417   -1.2017133377   -0.6329840761
C        0.7354357601   -0.6662572197   -1.6623345224
H        1.7073781936    1.0218388492   -0.5578809156
H        0.1775081170    1.2705329643    1.2468170201
H       -0.8230149574   -1.2486687645    1.4403737054
H        1.7749760697   -2.0524077984   -0.1559156956
H        0.3635853637   -0.7398448202   -2.6730720471
13   
Iteration 14 Energy -340.92117796
C       -2.3601998113    1.1662790545    0.0988595414
N       -1.2687501591    1.6887638402   -0.2241884762
C        0.9384283929    0.2480124765   -0.4788504383
C       -0.2465869076    0.7281053089    0.3791051566
C       -1.1420673491   -0.3443062204    0.9274561864
N       -2.4070753624   -0.0862013563    0.7736405402
C        1.3202040114   -1.2213691558   -0.6388377083
C        0.7389764920   -0.6701338340   -1.6548645222
H        1.7258465333    1.0035388350   -0.5363012498
H        0.1282239914    1.3383300460    1.2061092636
H       -0.8130702305   -1.2552520785    1.4155683324
H        1.7785763675   -2.0801941361   -0.1714399443
H        0.3538638463   -0.7247656640   -2.6619287343
13   
Iteration 13 Energy -340.91793150
C       -2.3858525350    1.1681904596    0.0905674217
N       -1.3145308917    1.7213488074   -0.2714137757
C        0.9451086589    0.2449816239   -0.4713328777
C       -0.2451643473    0.7468761699    0.3691696983
C       -1.1500892442   -0.3367555900    0.9263849959
N       -2.4027465827   -0.0791875315    0.7648387325
C        1.3280702666   -1.2155885204   -0.6353228725
C        0.7396421357   -0.6699409229   -1.6512383880
H        1.7211471651    1.0122165357   -0.5500363728
H        0.1919258661    1.2421666372    1.2525344533
H       -0.8233283353   -1.2448726005    1.4327518896
H        1.8020095368   -2.0677968282   -0.1703944832
H        0.3401781219   -0.7308311242   -2.6521804743
13   
Iteration 12 Energy -340.91390107
C       -2.3864406361    1.1730295685    0.0896237089
N       -1.3501666562    1.7400255593   -0.2837891464
C        0.9575622957    0.2396713130   -0.4664369839
C       -0.2232530467    0.7337661497    0.3751605121
C       -1.1368725524   -0.3393587427    0.9264933162
N       -2.4031490019   -0.0768555546    0.7629974070
C        1.3329980751   -1.2216891527   -0.6385144370
C        0.7396603060   -0.6741562303   -1.6493146674
H        1.7189403103    1.0220818057   -0.5447486176
H        0.1969363398    1.2621175214    1.2524306491
H       -0.8339453713   -1.2626114733    1.4287076430
H        1.8025290261   -2.0760556691   -0.1713423350
H        0.3315707263   -0.7291579790   -2.6469391019
13   
Iteration 11 Energy -340.91136073
C       -2.3929770672    1.1711852385    0.0928937927
N       -1.3746976282    1.7583726305   -0.2933910352
C        0.9639351700    0.2374859863   -0.4629722962
C       -0.2092854632    0.7212831490    0.3850968019
C       -1.1358619503   -0.3397950042    0.9244073614
N       -2.4000774555   -0.0787140164    0.7630408391
C        1.3364278343   -1.2260339938   -0.6403526202
C        0.7388407064   -0.6753009167   -1.6462584354
H        1.7309235109    1.0139167652   -0.5413873235
H        0.1918650389    1.2815740161    1.2493102999
H       -0.8327595607   -1.2658041623    1.4206770196
H        1.8045544471   -2.0819100594   -0.1747645963
H        0.3254822324   -0.7254525168   -2.6419718608
13   
Iteration 10 Energy -340.90969639
C       -2.3961699870    1.1694793542    0.0964564191
N       -1.3906333884    1.7706532387   -0.2964789780
C        0.9684132200    0.2358223054   -0.4606589094
C       -0.1974075317    0.7087456773    0.3945317722
C       -1.1346201055   -0.3408368835    0.9225103657
N       -2.3978000352   -0.0808085464    0.7638706848
C        1.3386521819   -1.2303434713   -0.6424420830
C        0.7382187056   -0.6761577439   -1.6440959117
H        1.7418537419    1.0055272234   -0.5371481671
H        0.1802767205    1.3076139005    1.2415197244
H       -0.8307259504   -1.2692700529    1.4133311983
H        1.8045068989   -2.0881937181   -0.1782910409
H        0.3218053442   -0.7214241674   -2.6387771272
13   
Iteration 9 Energy -340.90819238
C       -2.3981324916    1.1674859412    0.1008319329
N       -1.4035392936    1.7813995947   -0.2981340694
C        0.9723174674    0.2346610215   -0.4583941690
C       -0.1865350728    0.6968200029    0.4048273274
C       -1.1342294108   -0.3422773667    0.9215532449
N       -2.3956699988   -0.0828424763    0.7653072320
C        1.3407894497   -1.2338253869   -0.6440827527
C        0.7380408766   -0.6764062865   -1.6420449661
H        1.7521970899    0.9970106026   -0.5333279744
H        0.1673509896    1.3285673563    1.2291244722
H       -0.8300475632   -1.2695257625    1.4064316517
H        1.8047960149   -2.0929081373   -0.1818060190
H        0.3190317577   -0.7173519871   -2.6359579635
13   
Iteration 8 Energy -340.90687310
C       -2.3992911816    1.1657542331    0.1037413226
N       -1.4130179851    1.7899294383   -0.2995588071
C        0.9745669131    0.2335034782   -0.4570259739
C       -0.1778627147    0.6858372163    0.4121192082
C       -1.1346376333   -0.3429860130    0.9197659971
N       -2.3941573280   -0.0840724678    0.7658999580
C        1.3420183834   -1.2368217691   -0.6459976831
C        0.7377378031   -0.6767701655   -1.6410354327
H        1.7608496883    0.9895920684   -0.5307725144
H        0.1565157122    1.3536486114    1.2238856243
H       -0.8281523746   -1.2747764133    1.4023870317
H        1.8048190725   -2.0978129080   -0.1848403187
H        0.3169814596   -0.7142181931   -2.6342404649
13   
Iteration 7 Energy -340.90567720
C       -2.3988836403    1.1647834564    0.1074702590
N       -1.4209243603    1.7973661607   -0.2994902236
C        0.9768469565    0.2326262986   -0.4548865372
C       -0.1685091240    0.6773696504    0.4196946800
C       -1.1334308576   -0.3439881393    0.9199601098
N       -2.3922807387   -0.0845124321    0.7677415207
C        1.3437471450   -1.2391792246   -0.6470396585
C        0.7379103473   -0.6768540984   -1.6395804545
H        1.7669801296    0.9837761493   -0.5277004356
H        0.1424321275    1.3657266766    1.2110818848
H       -0.8278637772   -1.2739869530    1.3967457746
H        1.8051031681   -2.1009209136   -0.1874083475
H        0.3152424389   -0.7113995151   -2.6322606249
13   
Iteration 6 Energy -340.90474015
C       -2.3989202918    1.1638124608    0.1097123378
N       -1.4268411902    1.8028254957   -0.2998649486
C        0.9784255838    0.2318554862   -0.4537772364
C       -0.1623951501    0.6701773485    0.4250223321
C       -1.1333949673   -0.3445547801    0.9191982658
N       -2.3913548692   -0.0850667604    0.7684267224
C        1.3447044427   -1.2410396327   -0.6482344512
C        0.7379356170   -0.6769444287   -1.6389185480
H        1.7721889981    0.9792710439   -0.5257854345
H        0.1339964557    1.3802893822    1.2048440884
H       -0.8272478181   -1.2766764789    1.3943096284
H        1.8051796936   -2.1039443635   -0.1894623246
H        0.3140933106   -0.7091976572   -2.6311424845
13   
Iteration 5 Energy -340.90404265
C       -2.3986059535    1.1632544343    0.1116090810
N       -1.4311376924    1.8066872480   -0.2996768031
C        0.9796950523    0.2313294658   -0.4527932523
C       -0.1576865589    0.6650641972    0.4293532162
C       -1.1329978937   -0.3451073570    0.9189590066
N       -2.3906264920   -0.0854548876    0.7692294073
C        1.3455336620   -1.2423792084   -0.6489957829
C        0.7380461680   -0.6769403055   -1.6382841041
H        1.7757981646    0.9760281615   -0.5240652384
H        0.1269436019    1.3890835192    1.1981373491
H       -0.8271470513   -1.2773624666    1.3920804119
H        1.8052441991   -2.1059318982   -0.1909980823
H        0.3133106088   -0.7074637867   -2.6302272618
13   
Iteration 4 Energy -340.90354305
C       -2.3984509287    1.1628434443    0.1128975581
N       -1.4342318490    1.8094711226   -0.2996368937
C        0.9805693910    0.2309444528   -0.4521213492
C       -0.1544142714    0.6613784464    0.4323782543
C       -1.1328020307   -0.3454458133    0.9186988978
N       -2.3901310057   -0.0857244095    0.7697193479
C        1.3460973340   -1.2433244274   -0.6495661900
C        0.7381109067   -0.6769353560   -1.6378670272
H        1.7783989446    0.9737206364   -0.5228910319
H        0.1221708055    1.3956733770    1.1937028976
H       -0.8270060419   -1.2781698268    1.3906964791
H        1.8052994689   -2.1073956277   -0.1920861016
H        0.3127590914   -0.7062289029   -2.6295968942
13   
Iteration 3 Energy -340.90319005
C       -2.3983819415    1.1625175305    0.1138207435
N       -1.4363543786    1.8114455263   -0.2995879263
C        0.9811549528    0.2306813015   -0.4516619927
C       -0.1521468689    0.6587258828    0.4345347422
C       -1.1327383721   -0.3456671757    0.9184626085
N       -2.3897736064   -0.0859361367    0.7700529503
C        1.3464778223   -1.2439971222   -0.6499839930
C        0.7381502737   -0.6769169975   -1.6375803662
H        1.7803307623    0.9719902034   -0.5220638476
H        0.1187464102    1.4005907869    1.1905960598
H       -0.8268122340   -1.2788306293    1.3897767886
H        1.8053263598   -2.1084697149   -0.1928746123
H        0.3123906350   -0.7053263393   -2.6291632078
13   
Iteration 2 Energy -340.90284038
C       -2.3984312658    1.1620001833    0.1148900618
N       -1.4376386575    1.8131193215   -0.2990021880
C        0.9815600905    0.2304784411   -0.4513798037
C       -0.1500845719    0.6557590686    0.4368024385
C       -1.1330434437   -0.3458828952    0.9180074207
N       -2.3893901545   -0.0863552651    0.7704194216
C        1.3467486643   -1.2447649794   -0.6505417494
C        0.7381831423   -0.6768328356   -1.6373872847
H        1.7828732875    0.9696607612   -0.5211452335
H        0.1143978497    1.4079888534    1.1873499248
H       -0.8260259217   -1.2802015537    1.3889316647
H        1.8050172448   -2.1099256295   -0.1937508383
H        0.3122035508   -0.7042363547   -2.6288658873
13   
Iteration 1 Energy -340.89993541
C       -2.4004649457    1.1650168301    0.1095247524
N       -1.4942576053    1.8471880218   -0.3356081393
C        0.9884538027    0.2241033194   -0.4431537279
C       -0.1330015101    0.6499652137    0.4396747422
C       -1.1279276430   -0.3425737867    0.9167902697
N       -2.3867183693   -0.0778710034    0.7658140610
C        1.3520947535   -1.2449764944   -0.6494904761
C        0.7364415760   -0.6798012862   -1.6337429038
H        1.7764150175    0.9763669268   -0.5252419575
H        0.1490712694    1.3658194450    1.2155523311
H       -0.8388906366   -1.2797383136    1.3922432787
H        1.8241206982   -2.1047539473   -0.1968504350
H        0.3010334075   -0.7079378094   -2.6211838483
13   
Iteration 0 Energy -340.89946862
C       -2.3859528368    1.1677265380    0.1232748521
N       -1.5099418489    1.8590546432   -0.3423015968
C        0.9963825927    0.2181665090   -0.4381616237
C       -0.1097658628    0.6156759539    0.4613798408
C       -1.1291932701   -0.3472794543    0.9260949334
N       -2.3899039061   -0.0676472531    0.7793155001
C        1.3656571431   -1.2476986751   -0.6586264480
C        0.7437726088   -0.6792485437   -1.6365983487
H        1.7823072240    0.9727604253   -0.5157243727
H        0.1134009351    1.4108745770    1.1745557307
H       -0.8592840330   -1.2973119628    1.3877768122
H        1.8300571850   -2.1120463573   -0.2066304879
H        0.2988338838   -0.7022192842   -2.6200268444
13   
Iteration 1 Energy -340.90010083
C       -2.3714973854    1.1621578397    0.1338291726
N       -1.5344147396    1.8788091100   -0.3394035636
C        1.0036748222    0.2157117520   -0.4287440067
C       -0.0836439311    0.6001775441    0.4847346267
C       -1.1144988885   -0.3505973650    0.9249071164
N       -2.3803248781   -0.0730496084    0.7766261910
C        1.3650088432   -1.2509891161   -0.6564959798
C        0.7411924157   -0.6783822443   -1.6304704709
H        1.7941867065    0.9652713548   -0.5064367559
H        0.0813940953    1.4594953819    1.1318617863
H       -0.8533650679   -1.3185279459    1.3536476353
H        1.8132188604   -2.1219135434   -0.2006335440
H        0.2854389620   -0.6973560434   -2.6090942603
13   
Iteration 2 Energy -340.90370205
C       -2.3556000681    1.1601699462    0.1376374370
N       -1.5808765922    1.9111684889   -0.3594749333
C        1.0159751661    0.2101366836   -0.4204389382
C       -0.0620991256    0.5719988294    0.5018554701
C       -1.1124832568   -0.3544228394    0.9232660751
N       -2.3827448803   -0.0634296622    0.7775415009
C        1.3714316045   -1.2540441151   -0.6602071079
C        0.7431278057   -0.6788017813   -1.6293442667
H        1.7995822910    0.9658746006   -0.5049452423
H        0.0739841104    1.4611964447    1.1190234181
H       -0.8712392637   -1.3210273204    1.3666907356
H        1.8280705358   -2.1250753307   -0.2128770834
H        0.2792414879   -0.6929368284   -2.6043991178
13   
Iteration 3 Energy -340.90944596
C       -2.3342614638    1.1596277214    0.1503881440
N       -1.6267600379    1.9459666738   -0.3695476807
C        1.0248463193    0.2030758947   -0.4096914830
C       -0.0358070960    0.5548480852    0.5277172581
C       -1.1024931294   -0.3533871847    0.9375468120
N       -2.3753967084   -0.0544824278    0.7885394490
C        1.3788719891   -1.2581742847   -0.6584601109
C        0.7421313689   -0.6813462919   -1.6210536407
H        1.8087798428    0.9588185208   -0.4945118242
H        0.0451634356    1.4907739248    1.0691889398
H       -0.8783967973   -1.3515624173    1.3167570015
H        1.8330173077   -2.1310058490   -0.2121262633
H        0.2666747843   -0.6923452494   -2.5904186544
13   
Iteration 4 Energy -340.91057016
C       -2.3314246345    1.1581781936    0.1519539562
N       -1.6333055088    1.9523055551   -0.3717419122
C        1.0269168585    0.2014143419   -0.4075360581
C       -0.0332041032    0.5494732580    0.5326669783
C       -1.1016510174   -0.3562288159    0.9348377441
N       -2.3751800043   -0.0536409011    0.7886385855
C        1.3798478881   -1.2594725785   -0.6597248731
C        0.7426429535   -0.6812963011   -1.6208776754
H        1.8104538009    0.9569769556   -0.4929307599
H        0.0407796763    1.4980414915    1.0633162438
H       -0.8794805941   -1.3519981232    1.3203378254
H        1.8340704277   -2.1329690788   -0.2148651696
H        0.2659040721   -0.6899768812   -2.5897469379
13   
Iteration 5 Energy -340.91217102
C       -2.3261610469    1.1577508675    0.1543092765
N       -1.6437097426    1.9612128225   -0.3744484939
C        1.0296073211    0.1994881271   -0.4043836617
C       -0.0285107090    0.5435018857    0.5397670949
C       -1.1000808602   -0.3583950280    0.9345136461