13   
IRC reactant Energy -340.92501833
C       -2.2413523869    1.3007177477    0.0569421323
N       -1.0834184079    1.7747156944   -0.0685443810
C        0.8707566119    0.2809700008   -0.5294536558
C       -0.2184476528    0.6811966536    0.4686277491
C       -1.2358807607   -0.3739397773    0.8426793718
N       -2.4492543433    0.0005321236    0.6023272047
C        1.4323281570   -1.1158781039   -0.6037027053
C        0.6556939038   -0.7715964789   -1.5833338916
H        1.5177019082    1.1336386957   -0.7556438058
H        0.2576453074    1.0695715219    1.3830116725
H       -1.0135836824   -1.3461253379    1.2777578295
H        2.0767731688   -1.8434812858   -0.1322188436
H        0.1774079916   -0.9995143380   -2.5241207299
13   
IRC product Energy -340.97576441
C       -2.5962395751    1.4452723381    0.9892228690
N       -2.8839588947    2.5374743280    1.3143715965
C        1.2111549829    0.0655036507   -0.5129275597
C       -0.0762451216    0.5558295452   -0.0002722215
C       -1.2138197607   -0.2253463403    0.1881533679
N       -2.3987838066    0.1827613101    0.6513716482
C        1.6646511422   -1.3769634157   -0.2869350734
C        1.2876744610   -1.1092099715   -1.4887167324
H        1.9786944319    0.8387725396   -0.5817405910
H       -0.1418771793    1.6131882656    0.2515450604
H       -1.1745500710   -1.2852791467   -0.0558173903
H        2.0129091768   -2.0581755376    0.4749833054
H        1.0767600289   -1.3930204494   -2.5089103319
