13   
Iteration 1 Energy -340.95660096
C       -0.8796316529    1.7076029401    0.4836125966
N       -1.4729191736    2.6825301629    0.2743869516
C        0.9354786726    0.3114545471   -0.4574243753
C       -0.0655283235    0.5057583940    0.7134261488
C       -0.9181817009   -0.7404158607    0.9656223287
N       -2.1660696081   -0.7930134029    0.9530751764
C        1.3774548748   -1.0437635120   -0.9329650625
C        0.5619751049   -0.4096469543   -1.7180122108
H        1.6287010363    1.1573586347   -0.5073086691
H        0.5168181512    0.6745571049    1.6322440990
H       -0.3365894319   -1.6515852266    1.1778408129
H        1.9957252621   -1.9051651741   -0.7271363399
H       -0.0000155338   -0.3514683266   -2.6378449392
13   
Iteration 0 Energy -340.95660095
C       -0.8798776943    1.7069497443    0.4846835232
N       -1.4733367708    2.6818353351    0.2758172486
C        0.9352881498    0.3109855274   -0.4569744699
C       -0.0655819652    0.5051467843    0.7140691871
C       -0.9181265765   -0.7410908142    0.9664472048
N       -2.1660129586   -0.7938127642    0.9542136478
C        1.3774757656   -1.0441282228   -0.9326413811
C        0.5619021114   -0.4100721749   -1.7176301206
H        1.6283938452    1.1569877194   -0.5068539391
H        0.5169273617    0.6739147895    1.6327956374
H       -0.3364228697   -1.6522091801    1.1785496137
H        1.9958926428   -1.9054456700   -0.7268833771
H       -0.0000916056   -0.3518889350   -2.6374567341
13   
Iteration 54 Energy -340.95660079
C       -0.8811665426    1.7058662262    0.4872131012
N       -1.4760094568    2.6802634988    0.2801730979
C        0.9350151261    0.3125431665   -0.4570787082
C       -0.0657712147    0.5044273997    0.7144502302
C       -0.9174512370   -0.7427492490    0.9647739560
N       -2.1652996712   -0.7963991006    0.9525982933
C        1.3785430673   -1.0417321581   -0.9339374371
C        0.5619880869   -0.4080067622   -1.7181594441
H        1.6272242216    1.1593438554   -0.5065629357
H        0.5169525752    0.6719426115    1.6333189850
H       -0.3350210646   -1.6537980776    1.1752830120
H        1.9979074881   -1.9025177338   -0.7289935300
H       -0.0005048830   -0.3497614241   -2.6376957614
13   
Iteration 53 Energy -340.95660047
C       -0.8812816496    1.7039342500    0.4909706094
N       -1.4767901803    2.6777732563    0.2829805321
C        0.9332527678    0.3132978562   -0.4576755658
C       -0.0646644844    0.5029810499    0.7165824566
C       -0.9134943375   -0.7459380680    0.9673390236
N       -2.1612178297   -0.8020793103    0.9563536908
C        1.3771999226   -1.0401202939   -0.9366068204
C        0.5572469233   -0.4071535201   -1.7178930446
H        1.6238581678    1.1611736366   -0.5086536222
H        0.5195668189    0.6711809195    1.6342729726
H       -0.3292982641   -1.6561831114    1.1762103333
H        1.9985574607   -1.9001819370   -0.7340884146
H       -0.0080933194   -0.3492074325   -2.6356412242
13   
Iteration 52 Energy -340.95659455
C       -0.8642429315    1.7408415091    0.4514141644
N       -1.4520100822    2.7169588489    0.2320262214
C        0.9292742257    0.3298805824   -0.4991754380
C       -0.0539192345    0.5373692304    0.6846905854
C       -0.9037029537   -0.7055722144    0.9593295485
N       -2.1516117579   -0.7581757669    0.9596201672
C        1.3611296684   -1.0308716885   -0.9682471274
C        0.5340649068   -0.4031137775   -1.7462058667
H        1.6223516305    1.1740996963   -0.5681366998
H        0.5409132281    0.7155460543    1.5934045496
H       -0.3208675090   -1.6151758872    1.1739918218
H        1.9816404330   -1.8914698823   -0.7637764125
H       -0.0422990719   -0.3528754435   -2.6573602681
13   
Iteration 51 Energy -340.95660061
C       -0.8955299670    1.6568582596    0.5504670726
N       -1.4976039280    2.6294363142    0.3560021550
C        0.9282369460    0.2872345191   -0.4134879025
C       -0.0709847369    0.4589261429    0.7623994194
C       -0.9127919901   -0.7971917229    1.0014198700
N       -2.1602605704   -0.8596048128    0.9925253839
C        1.3837662052   -1.0582580426   -0.9035839584
C        0.5589396632   -0.4256607671   -1.6800428028
H        1.6119799483    1.1411466014   -0.4571034255
H        0.5125685258    0.6210587355    1.6816458590
H       -0.3232544392   -1.7063272132    1.1998442839
H        2.0122882586   -1.9146502861   -0.7079929421
H       -0.0062479851   -0.3647287290   -2.5977213033
13   
Iteration 50 Energy -340.95659979
C       -0.8962173857    1.6555613107    0.5535420132
N       -1.4971977626    2.6291465110    0.3609127969
C        0.9261455579    0.2867552693   -0.4141288744
C       -0.0714424422    0.4569908509    0.7634139032
C       -0.9131892812   -0.7991938660    1.0023907532
N       -2.1606686033   -0.8614106099    0.9943362620
C        1.3867408017   -1.0580272334   -0.9012341746
C        0.5583793665   -0.4307964640   -1.6783655045
H        1.6064634593    1.1433629035   -0.4606125202
H        0.5138742425    0.6179893203    1.6818763615
H       -0.3236349070   -1.7086186688    1.1997376723
H        2.0189669132   -1.9112628123   -0.7044892064
H       -0.0080077315   -0.3745401372   -2.5956832198
13   
Iteration 49 Energy -340.95659788
C       -0.8959330414    1.6551413115    0.5560847332
N       -1.4987908959    2.6284298350    0.3673172857
C        0.9255222818    0.2863564219   -0.4150448408
C       -0.0718388906    0.4560587811    0.7625858722
C       -0.9142705354   -0.7999454469    1.0001903529
N       -2.1618892569   -0.8602463051    0.9957287814
C        1.3909429494   -1.0579658403   -0.8988446978
C        0.5592031162   -0.4365687224   -1.6769730512
H        1.6022322006    1.1453553833   -0.4646685976
H        0.5127147640    0.6162310099    1.6814402901
H       -0.3256709709   -1.7106922330    1.1932844820
H        2.0272205963   -1.9080584870   -0.6999232569
H       -0.0080881967   -0.3854578534   -2.5938678295
13   
Iteration 48 Energy -340.95659394
C       -0.8970079947    1.6544217194    0.5591495779
N       -1.4969531254    2.6300235065    0.3738044337
C        0.9215283451    0.2872434863   -0.4193095065
C       -0.0732436957    0.4542267270    0.7611303873
C       -0.9161201291   -0.8015557847    0.9980290661
N       -2.1638142068   -0.8602805948    1.0012185009
C        1.3980830522   -1.0554714102   -0.8962863155
C        0.5594262492   -0.4458196558   -1.6764448123
H        1.5911146093    1.1517978708   -0.4749727290
H        0.5149451095    0.6105908283    1.6786478660
H       -0.3272279955   -1.7138431427    1.1838014695
H        2.0417880828   -1.8987187407   -0.6939097830
H       -0.0100373333   -0.4050167938   -2.5927039358
13   
Iteration 47 Energy -340.95658215
C       -0.8974961477    1.6547856933    0.5625879475
N       -1.4966866810    2.6323732749    0.3844815547
C        0.9174148732    0.2885550400   -0.4253540562
C       -0.0753306778    0.4517650249    0.7572914467
C       -0.9198781881   -0.8034837674    0.9918266530
N       -2.1677478739   -0.8569464387    1.0088365506
C        1.4101129549   -1.0516446415   -0.8925555354
C        0.5624385394   -0.4591441794   -1.6761241340
H        1.5758847216    1.1607399393   -0.4891270512
H        0.5141834853    0.6046720959    1.6744847755
H       -0.3333074434   -1.7198922057    1.1629446319
H        2.0651495915   -1.8849801264   -0.6842719242
H       -0.0088649761   -0.4327975045   -2.5916355022
13   
Iteration 46 Energy -340.95656307
C       -0.8998480647    1.6554127284    0.5639521407
N       -1.4950505663    2.6370202831    0.3952258964
C        0.9137876476    0.2896755994   -0.4318646851
C       -0.0792023490    0.4511103800    0.7508925508
C       -0.9238446216   -0.8042972002    0.9841780160
N       -2.1713809314   -0.8564400703    1.0185928128
C        1.4199446596   -1.0491896738   -0.8882702200
C        0.5680299739   -0.4705015132   -1.6777521632
H        1.5648992455    1.1672254547   -0.5009140692
H        0.5122771421    0.5997334227    1.6677001415
H       -0.3360401559   -1.7227753783    1.1399733176
H        2.0826556847   -1.8745308822   -0.6733877544
H       -0.0011235171   -0.4568364091   -2.5950189516
13   
Iteration 45 Energy -340.95654181
C       -0.9001432521    1.6593772483    0.5611582536
N       -1.4959193858    2.6422446767    0.4027516435
C        0.9123696360    0.2896738064   -0.4352026508
C       -0.0818615387    0.4504844420    0.7464615489
C       -0.9252855189   -0.8059479917    0.9807659587
N       -2.1724391753   -0.8589244812    1.0239925186
C        1.4231454078   -1.0496893184   -0.8852587068
C        0.5725389969   -0.4754302163   -1.6793678417
H        1.5613827985    1.1685123450   -0.5048248230
H        0.5099931663    0.5990012164    1.6634055074
H       -0.3367774607   -1.7249568257    1.1306493677
H        2.0870966127   -1.8728871579   -0.6653695310
H        0.0065057424   -0.4657326826   -2.5985371875
13   
Iteration 44 Energy -340.95651029
C       -0.9058255238    1.6587059343    0.5622553588
N       -1.4910023718    2.6488951003    0.4075061083
C        0.9106474332    0.2892762256   -0.4378605861
C       -0.0870094673    0.4531590649    0.7407800874
C       -0.9261232535   -0.8046977968    0.9803738711
N       -2.1727632113   -0.8652780216    1.0283620528
C        1.4237788909   -1.0510165107   -0.8826921331
C        0.5787879841   -0.4782201500   -1.6836840166
H        1.5607370463    1.1672814077   -0.5056757124
H        0.5038483581    0.6037423687    1.6574160581
H       -0.3319267742   -1.7197716696    1.1310538679
H        2.0873134745   -1.8735083969   -0.6573334108
H        0.0201980952   -0.4706636454   -2.6072651989
13   
Iteration 43 Energy -340.95646121
C       -0.9078447204    1.6632154310    0.5566777090
N       -1.4913994857    2.6561011133    0.4159515587
C        0.9095755036    0.2879596221   -0.4410879752
C       -0.0908156750    0.4532668759    0.7356472307
C       -0.9273272563   -0.8053588354    0.9820556588
N       -2.1735387933   -0.8708351075    1.0324212733
C        1.4246652951   -1.0536468623   -0.8804197384
C        0.5861193633   -0.4802555023   -1.6879398962
H        1.5617499607    1.1652229586   -0.5055328236
H        0.5032349829    0.6048856735    1.6510089919
H       -0.3296587656   -1.7177782381    1.1381573891
H        2.0852001011   -1.8763873918   -0.6502354459
H        0.0343047195   -0.4725758603   -2.6159378348
13   
Iteration 42 Energy -340.95638926
C       -0.9113126738    1.6647756043    0.5532374010
N       -1.4892796562    2.6625088393    0.4225393126
C        0.9087361392    0.2865928251   -0.4433425234
C       -0.0952729975    0.4546418487    0.7301741411
C       -0.9284483606   -0.8046450817    0.9849958329
N       -2.1743178859   -0.8768261591    1.0356320776
C        1.4251041655   -1.0557400092   -0.8791588986
C        0.5929244374   -0.4815441253   -1.6925341234
H        1.5624881380    1.1626450236   -0.5042596517
H        0.4982215209    0.6103237401    1.6449717562
H       -0.3266905958   -1.7128391450    1.1492335206
H        2.0840061649   -1.8790373803   -0.6445172008
H        0.0483552212   -0.4733235468   -2.6245944057
13   
Iteration 41 Energy -340.95632271
C       -0.9131239609    1.6660279592    0.5492112860
N       -1.4880788516    2.6666612664    0.4276667913
C        0.9081547278    0.2856088432   -0.4448555906
C       -0.0981312450    0.4551675248    0.7265002128
C       -0.9294900534   -0.8041244941    0.9877284862
N       -2.1751226738   -0.8809479449    1.0377267630
C        1.4254814287   -1.0570283488   -0.8783752923
C        0.5975774106   -0.4820073676   -1.6955785705
H        1.5632195657    1.1610709725   -0.5030884068
H        0.4960037655    0.6132759070    1.6406875819
H       -0.3248776068   -1.7092725325    1.1592596798
H        2.0829174081   -1.8804643749   -0.6411607778
H        0.0578202623   -0.4731176371   -2.6305497773
13   
Iteration 40 Energy -340.95626636
C       -0.9139491969    1.6665666246    0.5457902568
N       -1.4870164669    2.6690940139    0.4314471913
C        0.9076411245    0.2849459847   -0.4456887473
C       -0.1001621392    0.4555644678    0.7237726950
C       -0.9303197639   -0.8034567761    0.9898883533
N       -2.1757773834   -0.8838901706    1.0391116503
C        1.4256386367   -1.0576513350   -0.8778436789
C        0.6006690793   -0.4821508160   -1.6976496343
H        1.5633104132    1.1599983726   -0.5019885868
H        0.4936201011    0.6162270277    1.6376809473
H       -0.3237900095   -1.7062498077    1.1670000010
H        2.0825158136   -1.8812165613   -0.6387844427
H        0.0644490225   -0.4726967112   -2.6345573654
13   
Iteration 39 Energy -340.95622089
C       -0.9140955905    1.6667922948    0.5428301913
N       -1.4861854278    2.6703415052    0.4342371029
C        0.9070896964    0.2845191063   -0.4461338855
C       -0.1016391578    0.4558405758    0.7220230217
C       -0.9309543955   -0.8027425424    0.9914272128
N       -2.1762424139   -0.8859091380    1.0400225923
C        1.4256928390   -1.0579098019   -0.8774083872
C        0.6026823322   -0.4821436600   -1.6990295694
H        1.5631887551    1.1594598871   -0.5011134585
H        0.4920163992    0.6183392471    1.6358520309
H       -0.3228402789   -1.7038586747    1.1722387721
H        2.0821479823   -1.8812832095   -0.6372425573
H        0.0689228741   -0.4724143446   -2.6374188753
13   
Iteration 38 Energy -340.95618466
C       -0.9138767731    1.6667937285    0.5405419698
N       -1.4855124996    2.6708656841    0.4362332693
C        0.9066067224    0.2842605393   -0.4463464733
C       -0.1028528031    0.4561526802    0.7209471282
C       -0.9313833636   -0.8020687871    0.9924805364
N       -2.1765361298   -0.8872721884    1.0406127958
C        1.4256606244   -1.0579701652   -0.8771094323
C        0.6039959840   -0.4821221448   -1.6999943987
H        1.5628456797    1.1591154154   -0.5004022318
H        0.4903772801    0.6200869459    1.6347199653
H       -0.3219938192   -1.7018686447    1.1755551959
H        2.0820730862   -1.8813447354   -0.6361531725
H        0.0720235310   -0.4723446148   -2.6393249294
13   
Iteration 37 Energy -340.95615593
C       -0.9134532706    1.6665880146    0.5388701259
N       -1.4850189083    2.6710484176    0.4376233977
C        0.9062382547    0.2841192914   -0.4464552041
C       -0.1039449925    0.4565339144    0.7203048458
C       -0.9316511248   -0.8015223136    0.9931845336
N       -2.1767178802   -0.8881561148    1.0409902745
C        1.4256313579   -1.0579842557   -0.8768967996
C        0.6048486262   -0.4820995995   -1.7006535683
H        1.5625628028    1.1589231337   -0.4998998317
H        0.4891741684    0.6213131359    1.6341531434
H       -0.3211266976   -1.7002881077    1.1776035380
H        2.0818900987   -1.8811655101   -0.6355111648
H        0.0740399651   -0.4724095298   -2.6407137874
13   
Iteration 36 Energy -340.95613362
C       -0.9130037754    1.6663317860    0.5378350086
N       -1.4846647413    2.6710392835    0.4385092466
C        0.9060090556    0.2840499192   -0.4464989232
C       -0.1048374432    0.4569505884    0.7199247927
C       -0.9317840839   -0.8011638624    0.9936386664
N       -2.1768213794   -0.8886865976    1.0412149743
C        1.4255814642   -1.0579519137   -0.8767809179
C        0.6053603809   -0.4820866594   -1.7010891134
H        1.5623495306    1.1587997539   -0.4995803965
H        0.4876985084    0.6222128351    1.6331331751
H       -0.3204980151   -1.6991125089    1.1788298151
H        2.0820958237   -1.8814248281   -0.6349950916
H        0.0753867652   -0.4724906389   -2.6414064100
13   
Iteration 35 Energy -340.95611105
C       -0.9122963629    1.6658761870    0.5374767658
N       -1.4843804027    2.6708800392    0.4390499677
C        0.9058897451    0.2840180860   -0.4464805120
C       -0.1058897960    0.4575235552    0.7193123965
C       -0.9318004084   -0.8009745229    0.9939650036
N       -2.1768655444   -0.8889969492    1.0413450311
C        1.4255669882   -1.0579639740   -0.8767383458
C        0.6056934766   -0.4820899216   -1.7013435602
H        1.5621147951    1.1587312603   -0.4993427791
H        0.4856366889    0.6250246203    1.6328260279
H       -0.3203308780   -1.6985666967    1.1797735984
H        2.0820208724   -1.8812979864   -0.6346791668
H        0.0761353815   -0.4724724426   -2.6419280123
13   
Iteration 34 Energy -340.95607994
C       -0.9116589611    1.6651942371    0.5373297866
N       -1.4844124409    2.6711070554    0.4393024530
C        0.9058688443    0.2840529656   -0.4464743466
C       -0.1063966107    0.4579139112    0.7191484758
C       -0.9317585942   -0.8009007664    0.9941330768
N       -2.1769045370   -0.8891578389    1.0414133240
C        1.4254708396   -1.0578639182   -0.8767582399
C        0.6058427719   -0.4820998402   -1.7015245982
H        1.5614874460    1.1580495473   -0.4991612197
H        0.4833786883    0.6263155630    1.6310108136
H       -0.3205627233   -1.6978700295    1.1801410015
H        2.0829214241   -1.8823807852   -0.6341659177
H        0.0768672592   -0.4724984872   -2.6416072654
13   
Iteration 33 Energy -340.95538048
C       -0.9382778071    1.6644107413    0.5130185009
N       -1.4615027755    2.6989256547    0.4552477018
C        0.9013876679    0.2801402697   -0.4504800116
C       -0.1236326774    0.4540825780    0.7031758380
C       -0.9327489144   -0.8067225055    1.0144210838
N       -2.1773419165   -0.9053229523    1.0495604353
C        1.4287298954   -1.0607892801   -0.8763834897
C        0.6257670154   -0.4795621708   -1.7137284686
H        1.5598108528    1.1541995236   -0.4881448438
H        0.4671144687    0.6451584413    1.6156967786
H       -0.3118121916   -1.6860578338    1.2503395259
H        2.0788121020   -1.8860614054   -0.6250693559
H        0.1138791127   -0.4637889269   -2.6640224333
13   
Iteration 32 Energy -340.95411798
C       -0.9629172294    1.6508036128    0.4836708341
N       -1.4376931433    2.7092162786    0.4767740553
C        0.9002311041    0.2800265580   -0.4511605580
C       -0.1384867721    0.4510517165    0.6855468472
C       -0.9309685565   -0.8083496660    1.0304644614
N       -2.1758290212   -0.9087465325    1.0533403007
C        1.4299482577   -1.0599151896   -0.8745349124
C        0.6364764791   -0.4750059516   -1.7182487473
H        1.5586230922    1.1545073256   -0.4786345077
H        0.4387829899    0.6729456114    1.5949455818
H       -0.3066467562   -1.6710267387    1.3124649342
H        2.0740213340   -1.8880638837   -0.6169771923
H        0.1315322505   -0.4561709617   -2.6721242858
13   
Iteration 31 Energy -340.95280830
C       -0.9804412881    1.6386228363    0.4594729293
N       -1.4221832252    2.7121487101    0.4930670768
C        0.9005386828    0.2813210990   -0.4504678565
C       -0.1469967218    0.4489117747    0.6741077708
C       -0.9289652916   -0.8084166308    1.0395112833
N       -2.1741035662   -0.9073423198    1.0548503688
C        1.4303357821   -1.0583743606   -0.8726565431
C        0.6404412989   -0.4714209393   -1.7183840655
H        1.5593938696    1.1565122034   -0.4733115223
H        0.4245732749    0.6953597181    1.5891404208
H       -0.3036899599   -1.6612384552    1.3497526139
H        2.0697399598   -1.8877092922   -0.6119254425
H        0.1359321975   -0.4510134455   -2.6728591594
13   
Iteration 30 Energy -340.95165147
C       -0.9934415836    1.6313252758    0.4417605638
N       -1.4100713859    2.7101278664    0.5046300156
C        0.9012752764    0.2824580824   -0.4492036126
C       -0.1511903068    0.4481619130    0.6676188979
C       -0.9274687254   -0.8075121520    1.0453154796
N       -2.1728289409   -0.9057268312    1.0553309389
C        1.4301123885   -1.0567940532   -0.8711997814
C        0.6418153842   -0.4690295220   -1.7179007312
H        1.5595792648    1.1587412589   -0.4699984077
H        0.4070658148    0.7098797103    1.5760128663
H       -0.3036027212   -1.6555971617    1.3705510698
H        2.0673405083   -1.8861958727   -0.6085434990
H        0.1369037347   -0.4483704215   -2.6726876365
13   
Iteration 29 Energy -340.95073298
C       -0.9989036021    1.6228138957    0.4307747134
N       -1.4043655889    2.7109559164    0.5116161375
C        0.9015579722    0.2832751833   -0.4482996655
C       -0.1540008722    0.4478961543    0.6624137997
C       -0.9265186575   -0.8061719958    1.0483882251
N       -2.1722601645   -0.9046205839    1.0555363743
C        1.4294230439   -1.0554437988   -0.8703131791
C        0.6423572047   -0.4677524114   -1.7174955879
H        1.5579072472    1.1609441365   -0.4667552495
H        0.4073732731    0.7248301295    1.5895666488
H       -0.3047091204   -1.6534693282    1.3813989955
H        2.0659115939   -1.8846046405   -0.6060747864
H        0.1376333737   -0.4476088399   -2.6720571047
13   
Iteration 28 Energy -340.94982534
C       -1.0062099052    1.6214385043    0.4216445473
N       -1.3975047212    2.7088006372    0.5179256449
C        0.9013428051    0.2853371763   -0.4482840299
C       -0.1535909419    0.4416910876    0.6603790918
C       -0.9256137586   -0.8054457951    1.0502989048
N       -2.1719639215   -0.9035667324    1.0560409344
C        1.4289804091   -1.0542333664   -0.8691573221
C        0.6429261480   -0.4659204028   -1.7169429978
H        1.5568937924    1.1572351320   -0.4654311942
H        0.3775852669    0.7537836868    1.5625583461
H       -0.3020220475   -1.6419220719    1.3941945453
H        2.0676546977   -1.8907425959   -0.6014361746
H        0.1387785150   -0.4456223869   -2.6682422998
13   
Iteration 27 Energy -340.94869706
C       -1.0098064592    1.6193166238    0.4164174066
N       -1.3938214657    2.7082039633    0.5217932429
C        0.9003350628    0.2860156413   -0.4480013950
C       -0.1527347049    0.4354182008    0.6581631754
C       -0.9255504344   -0.8035154716    1.0508215270
N       -2.1720592599   -0.9029531194    1.0561953385
C        1.4292460892   -1.0544313787   -0.8681602185
C        0.6432633001   -0.4650078746   -1.7162926585
H        1.5628794996    1.1643424913   -0.4645648450
H        0.3623516028    0.7942156639    1.5643586070
H       -0.2949754721   -1.6403087743    1.4012261159
H        2.0600105377   -1.8814935003   -0.6027030953
H        0.1364534931   -0.4452743639   -2.6728191718
13   
Iteration 26 Energy -340.94561919
C       -1.0340385247    1.5968838376    0.3731338081
N       -1.3670053532    2.6952065835    0.5472943471
C        0.9037178708    0.2894295993   -0.4443171387
C       -0.1678874798    0.4513071114    0.6435612082
C       -0.9222774801   -0.8015663355    1.0616350464
N       -2.1674907445   -0.8974304233    1.0565595201
C        1.4273690245   -1.0494365355   -0.8637644927
C        0.6424974151   -0.4593058882   -1.7116131945
H        1.5594523572    1.1687960740   -0.4592414271
H        0.3782474189    0.7372063647    1.5664143073
H       -0.3000539785   -1.6290487085    1.4404574699
H        2.0543246022   -1.8829606823   -0.5946873178
H        0.1310538544   -0.4372866555   -2.6630282257
13   
Iteration 25 Energy -340.94061253
C       -1.0603494679    1.5787823203    0.3310461403
N       -1.3372370929    2.6788308688    0.5731221705
C        0.9046158105    0.2958303706   -0.4407904030
C       -0.1724192002    0.4486155851    0.6343521073
C       -0.9188231852   -0.7947389795    1.0687637667
N       -2.1651420378   -0.8921536916    1.0564935030
C        1.4244512254   -1.0439803902   -0.8590232998
C        0.6405824156   -0.4535409010   -1.7071930200
H        1.5572489356    1.1703661986   -0.4546447277
H        0.3298137790    0.8006619607    1.5393458128
H       -0.2982226403   -1.6070836701    1.4699890195
H        2.0518254095   -1.8851257746   -0.5844515944
H        0.1271015061   -0.4325769244   -2.6537484039
13   
Iteration 24 Energy -340.93449255
C       -1.0873416964    1.5621542402    0.2873926373
N       -1.3078760542    2.6575278285    0.5971231180
C        0.9041778189    0.3020961832   -0.4375294590
C       -0.1774476289    0.4515405445    0.6251417138
C       -0.9169739247   -0.7859709252    1.0748934800
N       -2.1626819699   -0.8864639076    1.0564470820
C        1.4219259283   -1.0389033867   -0.8531408492
C        0.6381908158   -0.4477340023   -1.7015017286
H        1.5622705441    1.1844468595   -0.4507664367
H        0.3178129734    0.8276697537    1.5452386050
H       -0.2917066437   -1.5913885670    1.5003550877
H        2.0382539825   -1.8729023388   -0.5781933977
H        0.1181341522   -0.4271291708   -2.6506848260
13   
Iteration 23 Energy -340.92757211
C       -1.1126084570    1.5451328418    0.2453084655
N       -1.2781996973    2.6343606192    0.6201167843
C        0.9061467140    0.3091898661   -0.4338084515
C       -0.1833659699    0.4595157897    0.6189531928
C       -0.9144445751   -0.7776657048    1.0817576599
N       -2.1601218794   -0.8812596839    1.0560497383
C        1.4182856718   -1.0326783502   -0.8485343782
C        0.6344871929   -0.4423814773   -1.6961399623
H        1.5557597118    1.1826622263   -0.4487390172
H        0.2915065941    0.8432511962    1.5187538123
H       -0.2960803197   -1.5714884330    1.5164905316
H        2.0407445274   -1.8804312627   -0.5677816121
H        0.1143350199   -0.4224704332   -2.6372776471
13   
Iteration 22 Energy -340.92026783
C       -1.1368775208    1.5370679357    0.2092022293
N       -1.2505637769    2.6061402198    0.6384452204
C        0.9057603241    0.3151548974   -0.4307029568
C       -0.1876898181    0.4637417618    0.6134335863
C       -0.9129654879   -0.7673569872    1.0859139470
N       -2.1588241330   -0.8769718070    1.0555513762
C        1.4163433188   -1.0292013435   -0.8431125432
C        0.6312339906   -0.4376551480   -1.6908373324
H        1.5664742497    1.2017240273   -0.4507042318
H        0.2863813220    0.8911521183    1.5335604469
H       -0.2917559174   -1.5682602864    1.5342637948
H        2.0242911210   -1.8614499942   -0.5661629543
H        0.1043676454   -0.4188318432   -2.6391932243
13   
Iteration 21 Energy -340.91162308
C       -1.1654203423    1.5215746334    0.1626061096
N       -1.2176622560    2.5738763043    0.6613802374
C        0.9042971690    0.3246345649   -0.4286906882
C       -0.1856236314    0.4739683743    0.6160657610
C       -0.9128076713   -0.7549046012    1.0895759544
N       -2.1576677480   -0.8723012813    1.0554035562
C        1.4110246785   -1.0217740456   -0.8374140086
C        0.6272792468   -0.4323850245   -1.6859008499
H        1.5565210981    1.1984969155   -0.4480504995
H        0.2667274556    0.8964702963    1.5102142707
H       -0.2916497623   -1.5380589674    1.5434683786
H        2.0258697113   -1.8688459659   -0.5527324781
H        0.1026783766   -0.4150677866   -2.6261914747
13   
Iteration 20 Energy -340.90396447
C       -1.1911251120    1.5149136778    0.1263162523
N       -1.1905485402    2.5451194352    0.6783544159
C        0.9042242123    0.3307709351   -0.4263281370
C       -0.1866754703    0.4829557663    0.6164412807
C       -0.9123741822   -0.7453314311    1.0934076554
N       -2.1567216415   -0.8690445326    1.0550021356
C        1.4086456167   -1.0181351496   -0.8332247350
C        0.6240475788   -0.4285166441   -1.6813248744
H        1.5604145329    1.2085578820   -0.4499187380
H        0.2669803614    0.9183708542    1.5176375835
H       -0.2908254871   -1.5318013290    1.5509778706
H        2.0184229263   -1.8611298770   -0.5490921388
H        0.0962394389   -0.4114046871   -2.6231483851
13   
Iteration 19 Energy -340.89839527
C       -1.2105185617    1.5131521086    0.1010378853
N       -1.1718039480    2.5235144903    0.6890743280
C        0.9037454997    0.3356666965   -0.4252205520
C       -0.1839437904    0.4882010778    0.6201332920
C       -0.9124967013   -0.7385826842    1.0954699200
N       -2.1564078396   -0.8669772229    1.0547785667
C        1.4065071024   -1.0152455752   -0.8304789111
C        0.6218646958   -0.4260253380   -1.6785880847
H        1.5596044343    1.2111857427   -0.4505503225
H        0.2643894969    0.9298046287    1.5161917050
H       -0.2904730510   -1.5230847054    1.5529015755
H        2.0165266229   -1.8599885549   -0.5446279682
H        0.0935305447   -0.4090737485   -2.6190921096
13   
Iteration 18 Energy -340.89451156
C       -1.2232945951    1.5077790684    0.0822224537
N       -1.1594150939    2.5127101061    0.6979645447
C        0.9030501919    0.3385575887   -0.4244360170
C       -0.1824402754    0.4916030148    0.6219650861
C       -0.9129157602   -0.7337875485    1.0966203726
N       -2.1561576054   -0.8656425291    1.0546086176
C        1.4053114684   -1.0137176053   -0.8286559271
C        0.6205647934   -0.4244964621   -1.6765485844
H        1.5625027233    1.2176339945   -0.4511622372
H        0.2674024913    0.9413672375    1.5245475303
H       -0.2879572083   -1.5207071071    1.5550438157
H        2.0121649187   -1.8547556173   -0.5433362386
H        0.0904615745   -0.4074822574   -2.6186793143
13   
Iteration 17 Energy -340.89152833
C       -1.2301905749    1.5082984639    0.0718452474
N       -1.1473840305    2.4927585957    0.7020523899
C        0.9031088046    0.3422430086   -0.4235479865
C       -0.1861940665    0.4973602422    0.6191655520
C       -0.9125723308   -0.7289682851    1.0986522050
N       -2.1555846275   -0.8637512997    1.0545998445
C        1.4036170922   -1.0109962530   -0.8260483144
C        0.6187907986   -0.4219489303   -1.6742406157
H        1.5600778736    1.2177072817   -0.4512516717
H        0.2624653146    0.9417183166    1.5155433961
H       -0.2888705006   -1.5100249187    1.5610851401
H        2.0109799840   -1.8561952448   -0.5387833409
H        0.0885919105   -0.4054017383   -2.6141026397
13   
Iteration 16 Energy -340.88882869
C       -1.2394167090    1.5076348842    0.0598959050
N       -1.1379019012    2.4809062895    0.7069092514
C        0.9028289553    0.3446932333   -0.4229350507
C       -0.1854567545    0.5007240756    0.6206978364
C       -0.9127004497   -0.7254067835    1.0996588302