13   
IRC reactant Energy -340.95660095
C       -0.8798776943    1.7069497443    0.4846835232
N       -1.4733367708    2.6818353351    0.2758172486
C        0.9352881498    0.3109855274   -0.4569744699
C       -0.0655819652    0.5051467843    0.7140691871
C       -0.9181265765   -0.7410908142    0.9664472048
N       -2.1660129586   -0.7938127642    0.9542136478
C        1.3774757656   -1.0441282228   -0.9326413811
C        0.5619021114   -0.4100721749   -1.7176301206
H        1.6283938452    1.1569877194   -0.5068539391
H        0.5169273617    0.6739147895    1.6327956374
H       -0.3364228697   -1.6522091801    1.1785496137
H        1.9958926428   -1.9054456700   -0.7268833771
H       -0.0000916056   -0.3518889350   -2.6374567341
13   
IRC product Energy -340.92257120
C       -1.7445610924    2.4965829599    0.0296264352
N       -1.0240168534    1.6265382134    0.3657078384
C        0.9077403418    0.3597602740   -0.3981029864
C       -0.1213537464    0.5861977931    0.7304381332
C       -0.8586300373   -0.6987438812    1.1160171583
N       -2.0939535095   -0.8778200249    1.0854022800
C        1.5093695092   -0.9845707576   -0.6992429133
C        0.6353267774   -0.5553796540   -1.5559623602
H        1.4975082508    1.2686404609   -0.5575253142
H        0.4174536488    0.9187301751    1.6300092954
H       -0.1965345003   -1.5118984069    1.4533273387
H        2.2241174121   -1.7316865760   -0.3870657510
H        0.0824471732   -0.6780775065   -2.4747603023
