13   
Iteration 25 Energy -340.97170846
C       -1.5534542542   -1.3342416440   -0.1739006257
N       -2.1690219478   -1.3544048884   -1.1704618520
C        0.3676368785    1.3633125300   -0.0898293921
C        0.1186996559    0.8114726619    1.1286829397
C       -0.2169732865   -0.5381359031    1.5445436912
N       -0.9163730545   -1.4756070795    0.9826924231
C        0.7891567491   -0.4684901389   -1.7551783943
C        0.5410876185    0.7888135409   -1.4235184871
H        0.5344176022    2.4403258548   -0.0721831169
H        0.2343637512    1.4834046437    1.9788141199
H        0.1366211414   -0.8004531671    2.5446259371
H        0.9441657209   -1.4328702354   -1.2929069224
H        0.5167331393    1.5255331956   -2.2300634369
13   
Iteration 24 Energy -340.97170835
C       -1.5534408833   -1.3341312842   -0.1738910230
N       -2.1695571274   -1.3538062676   -1.1701108356
C        0.3670639386    1.3635484142   -0.0899283420
C        0.1183210747    0.8115590341    1.1285281815
C       -0.2164446542   -0.5383571405    1.5441664653
N       -0.9157413687   -1.4759139233    0.9823478646
C        0.7883280038   -0.4687934589   -1.7547208090
C        0.5413799951    0.7888033118   -1.4234028458
H        0.5334344516    2.4406240821   -0.0723457712
H        0.2335482354    1.4834675451    1.9787385454
H        0.1377836481   -0.8008343935    2.5439835212
H        0.9434831802   -1.4330133412   -1.2920300652
H        0.5189012201    1.5255067925   -2.2300180025
13   
Iteration 23 Energy -340.97170739
C       -1.5500212831   -1.3377266210   -0.1746312441
N       -2.1620015441   -1.3615036935   -1.1733761443
C        0.3692559707    1.3635439320   -0.0892243755
C        0.1196129262    0.8117854062    1.1293540467
C       -0.2188975458   -0.5366128353    1.5462745974
N       -0.9166183957   -1.4752980652    0.9842218900
C        0.7842090964   -0.4673902963   -1.7574691728
C        0.5403693738    0.7902004755   -1.4234673929
H        0.5382495231    2.4402072863   -0.0708508338
H        0.2370292930    1.4836711463    1.9792659226
H        0.1309996634   -0.7969496193    2.5481627358
H        0.9370449298   -1.4333469981   -1.2979175866
H        0.5178277064    1.5280792527   -2.2290255590
13   
Iteration 22 Energy -340.97170190
C       -1.5446460612   -1.3451324283   -0.1739297639
N       -2.1519027893   -1.3752003091   -1.1754748601
C        0.3711130713    1.3637070931   -0.0886160598
C        0.1191687246    0.8123354177    1.1300036940
C       -0.2219384322   -0.5342698868    1.5495634835
N       -0.9159082434   -1.4761208232    0.9879370529
C        0.7749225759   -0.4648568702   -1.7634004405
C        0.5416545380    0.7934165864   -1.4239546652
H        0.5433782485    2.4398244327   -0.0684743338
H        0.2381638562    1.4848396843    1.9791897940
H        0.1232713459   -0.7905697042    2.5541073701
H        0.9213214943   -1.4341730421   -1.3091565696
H        0.5284613856    1.5348592200   -2.2264778180
13   
Iteration 21 Energy -340.97168809
C       -1.5378584189   -1.3537408845   -0.1723108635
N       -2.1413648176   -1.3897555171   -1.1759956159
C        0.3730018174    1.3642079705   -0.0877115868
C        0.1165445311    0.8137042737    1.1307301642
C       -0.2241279302   -0.5318245816    1.5530459025
N       -0.9123850625   -1.4782091138    0.9917945430
C        0.7653259520   -0.4620294107   -1.7703112730
C        0.5462204154    0.7970092793   -1.4237102132
H        0.5469211811    2.4400011536   -0.0658650720
H        0.2338653981    1.4876572002    1.9789893736
H        0.1172708093   -0.7835327434    2.5600494421
H        0.8970633460   -1.4374505514   -1.3248641626
H        0.5465824930    1.5426222958   -2.2225237549
13   
Iteration 20 Energy -340.97166472
C       -1.5311851442   -1.3616338679   -0.1701103119
N       -2.1328221847   -1.4018118862   -1.1748032144
C        0.3734767331    1.3647871704   -0.0869851259
C        0.1122668668    0.8154000263    1.1312633364
C       -0.2249953985   -0.5299204614    1.5559771618
N       -0.9068269844   -1.4811989049    0.9949763405
C        0.7553544726   -0.4599288119   -1.7767168765
C        0.5522287174    0.8000241073   -1.4230801168
H        0.5476669662    2.4404788506   -0.0638724247
H        0.2260652032    1.4912112219    1.9785163929
H        0.1146152323   -0.7775501205    2.5646018748
H        0.8709326690   -1.4409064317   -1.3404961620
H        0.5702825653    1.5497084786   -2.2179539905
13   
Iteration 19 Energy -340.97163170
C       -1.5243642792   -1.3683924281   -0.1682714423
N       -2.1250277318   -1.4117084288   -1.1734541053
C        0.3735915220    1.3655029632   -0.0860976421
C        0.1074895127    0.8174732496    1.1319741535
C       -0.2250360390   -0.5281517508    1.5584496054
N       -0.9000658500   -1.4841743172    0.9971276059
C        0.7460626713   -0.4581973209   -1.7823159621
C        0.5586183165    0.8023521934   -1.4218410059
H        0.5471711640    2.4412312302   -0.0622734421
H        0.2166801886    1.4952582387    1.9782448714
H        0.1135067125   -0.7723795896    2.5682687923
H        0.8444049359   -1.4455896769   -1.3555162412
H        0.5940285906    1.5554350076   -2.2129783038
13   
Iteration 18 Energy -340.97158916
C       -1.5177030371   -1.3742127616   -0.1667900841
N       -2.1180463252   -1.4202316757   -1.1720834874
C        0.3732019935    1.3661377542   -0.0851336531
C        0.1025665990    0.8197443033    1.1328950067
C       -0.2246648722   -0.5264433943    1.5606330874
N       -0.8927866588   -1.4869023476    0.9984901389
C        0.7368194946   -0.4573069214   -1.7870318924
C        0.5646045703    0.8038005812   -1.4201725284
H        0.5460604636    2.4419402625   -0.0611376016
H        0.2070968252    1.4994782702    1.9781732888
H        0.1133312202   -0.7679218206    2.5713078763
H        0.8190272598   -1.4490375422   -1.3700020517
H        0.6175521810    1.5596146624   -2.2078312159
13   
Iteration 17 Energy -340.97153794
C       -1.5110673932   -1.3788988892   -0.1660261127
N       -2.1113932138   -1.4274876128   -1.1712581481
C        0.3727597699    1.3669215109   -0.0839465004
C        0.0978473579    0.8223029484    1.1340977580
C       -0.2238907671   -0.5246495262    1.5624515438
N       -0.8851428460   -1.4890611756    0.9988515022
C        0.7282251930   -0.4564017774   -1.7910593068
C        0.5701519981    0.8047869456   -1.4181191703
H        0.5445997567    2.4428431897   -0.0602460311
H        0.1976050322    1.5038512320    1.9784669776
H        0.1136793800   -0.7640959798    2.5737608376
H        0.7947622706   -1.4543039276   -1.3831943971
H        0.6389231758    1.5628524326   -2.2024620691
13   
Iteration 16 Energy -340.97147996
C       -1.5050849899   -1.3827392719   -0.1655309073
N       -2.1055574870   -1.4339511733   -1.1706025800
C        0.3719981668    1.3674916471   -0.0827327951
C        0.0934525547    0.8248536685    1.1355161717
C       -0.2230448225   -0.5228974513    1.5641018557
N       -0.8779210204   -1.4906886563    0.9987793140
C        0.7200496086   -0.4565212939   -1.7942387982
C        0.5748878901    0.8048642087   -1.4157186216
H        0.5430862069    2.4435126117   -0.0597292759
H        0.1889878561    1.5081000036    1.9789721904
H        0.1143966278   -0.7609469856    2.5757970705
H        0.7730645090   -1.4567466301   -1.3959261854
H        0.6587446138    1.5643286933   -2.1973705552
13   
Iteration 15 Energy -340.97141897
C       -1.4996089506   -1.3854684310   -0.1656681063
N       -2.1001965268   -1.4391222573   -1.1705994175
C        0.3713646899    1.3683459489   -0.0813767052
C        0.0897480265    0.8274761275    1.1370098817
C       -0.2219772943   -0.5211472199    1.5652757079
N       -0.8711757999   -1.4916513941    0.9980202813
C        0.7131000561   -0.4560061580   -1.7967858280
C        0.5788708975    0.8049240979   -1.4133935988
H        0.5413866251    2.4445101953   -0.0593987607
H        0.1813433413    1.5120370172    1.9798053222
H        0.1152775327   -0.7583466353    2.5772429880
H        0.7539404301   -1.4627327774   -1.4065353664
H        0.6749866865    1.5658408566   -2.1922795146
13   
Iteration 14 Energy -340.97135036
C       -1.4943601668   -1.3880000801   -0.1658839529
N       -2.0950507953   -1.4443393362   -1.1706718276
C        0.3705424790    1.3689431452   -0.0801296944
C        0.0862848117    0.8298387986    1.1385598038
C       -0.2210329166   -0.5194973535    1.5665759675
N       -0.8647558842   -1.4924266613    0.9971767204
C        0.7063762705   -0.4568119543   -1.7985822497
C        0.5826246732    0.8041920506   -1.4103975935
H        0.5398936237    2.4451946868   -0.0591078034
H        0.1744097307    1.5158273895    1.9805319955
H        0.1159652831   -0.7560904466    2.5787807726
H        0.7355214643   -1.4631526019   -1.4175121161
H        0.6906411407    1.5649817337   -2.1880231387
13   
Iteration 13 Energy -340.97126552
C       -1.4886326029   -1.3902287076   -0.1668283047
N       -2.0897265367   -1.4494230529   -1.1713062610
C        0.3691580478    1.3698355819   -0.0786064400
C        0.0826967527    0.8330125177    1.1406182620
C       -0.2195001163   -0.5174729987    1.5674632676
N       -0.8575787748   -1.4926542096    0.9955302626
C        0.6983333599   -0.4565735142   -1.8006020883
C        0.5858165434    0.8038511040   -1.4081477703
H        0.5374732479    2.4462482622   -0.0593153708
H        0.1671523447    1.5201474785    1.9819918006
H        0.1176238586   -0.7540752499    2.5796349804
H        0.7164608648   -1.4703194899   -1.4270503836
H        0.7077827248    1.5663116491   -2.1820650709
13   
Iteration 12 Energy -340.97116670
C       -1.4830454326   -1.3928561453   -0.1674893417
N       -2.0840652364   -1.4545730983   -1.1719072518
C        0.3675220243    1.3716535507   -0.0766702223
C        0.0797927985    0.8362619776    1.1427319113
C       -0.2181988841   -0.5152567760    1.5682230509
N       -0.8515017776   -1.4926705059    0.9946358419
C        0.6926703891   -0.4585546987   -1.8026275999
C        0.5892774059    0.8015075004   -1.4032290680
H        0.5345181571    2.4482555355   -0.0599294351
H        0.1607829096    1.5240313119    1.9838975978
H        0.1185093477   -0.7514377900    2.5806334988
H        0.6969912964   -1.4714055575   -1.4411365109
H        0.7238067162    1.5637040660   -2.1758155874
13   
Iteration 11 Energy -340.97105918
C       -1.4776259103   -1.3950698077   -0.1689168564
N       -2.0792051000   -1.4585711028   -1.1729270322
C        0.3661239860    1.3738935892   -0.0750084972
C        0.0776782808    0.8390982378    1.1442545063
C       -0.2167578409   -0.5134885470    1.5681239898
N       -0.8462052666   -1.4927601924    0.9933102477
C        0.6871268461   -0.4591301955   -1.8049488988
C        0.5915525172    0.7994952633   -1.3984315357
H        0.5320077620    2.4506350027   -0.0604908211
H        0.1556775855    1.5268911336    1.9856474110
H        0.1194308863   -0.7493286603    2.5807815182
H        0.6801215206   -1.4735418791   -1.4497942202
H        0.7371344473    1.5605365285   -2.1702829278
13   
Iteration 10 Energy -340.97072058
C       -1.4688434677   -1.3970311766   -0.1666778536
N       -2.0718872048   -1.4638128460   -1.1696546851
C        0.3636591557    1.3810598030   -0.0697879120
C        0.0739084185    0.8457755000    1.1484172883
C       -0.2166599802   -0.5078230514    1.5720201982
N       -0.8417274424   -1.4905461441    0.9981885393
C        0.6800921675   -0.4603752174   -1.7927309147
C        0.5943035127    0.7971741204   -1.3866803304
H        0.5270301171    2.4581513836   -0.0588892553
H        0.1466165680    1.5335037152    1.9903104811
H        0.1167328612   -0.7403858930    2.5863507247
H        0.6674100187   -1.5007022333   -1.5188602179
H        0.7564249897    1.5536714100   -2.1606891790
13   
Iteration 9 Energy -340.97013584
C       -1.4660924459   -1.3970715605   -0.1622125918
N       -2.0694832459   -1.4658801303   -1.1648878134
C        0.3626522787    1.3846676411   -0.0664419152
C        0.0718071381    0.8494249237    1.1513881791
C       -0.2183866991   -0.5038868459    1.5768493218
N       -0.8423582848   -1.4882673020    1.0047052634
C        0.6778555820   -0.4626243132   -1.7777264143
C        0.5956093552    0.7960651701   -1.3801532569
H        0.5249896964    2.4619341092   -0.0570254832
H        0.1422506800    1.5378616965    1.9929062795
H        0.1129605015   -0.7337020862    2.5924795495
H        0.6717571206   -1.5191571815   -1.5814545152
H        0.7634980373    1.5492952494   -2.1571097195
13   
Iteration 8 Energy -340.96956520
C       -1.4652013776   -1.3969841815   -0.1584296924
N       -2.0685556258   -1.4672092378   -1.1610671410
C        0.3622195741    1.3861538384   -0.0644083376
C        0.0704145542    0.8515502872    1.1534904617
C       -0.2200263288   -0.5013119291    1.5806972638
N       -0.8435771816   -1.4866357658    1.0097798110
C        0.6765841899   -0.4650759949   -1.7661570587
C        0.5965253184    0.7950518444   -1.3766072405
H        0.5241786756    2.4635072327   -0.0559175175
H        0.1396878199    1.5408505943    1.9944149946
H        0.1100185012   -0.7292760474    2.5971753000
H        0.6776198847   -1.5283531990   -1.6260548978
H        0.7671717099    1.5463919291   -2.1555990618
13   
Iteration 7 Energy -340.96911343
C       -1.4649281990   -1.3969140328   -0.1555905440
N       -2.0681561305   -1.4681294752   -1.1582625726
C        0.3620093137    1.3867871801   -0.0631089781
C        0.0694652170    0.8528884113    1.1549709124
C       -0.2213029244   -0.4995820860    1.5835119115
N       -0.8446608363   -1.4854962559    1.0134559598
C        0.6757409370   -0.4670933328   -1.7577824955
C        0.5971931421    0.7941804011   -1.3745592946
H        0.5238314745    2.4641890912   -0.0552847400
H        0.1380560847    1.5429202906    1.9953646547
H        0.1078904429   -0.7262899108    2.6005540748
H        0.6825592310   -1.5332375862   -1.6571436094
H        0.7693619611    1.5444366760   -2.1548083954
13   
Iteration 6 Energy -340.96877867
C       -1.4648080490   -1.3968269134   -0.1535524037
N       -2.0679258895   -1.4687319072   -1.1562618761
C        0.3618675081    1.3871848786   -0.0621945110
C        0.0687945938    0.8538312526    1.1560347703
C       -0.2222257487   -0.4983511476    1.5855229585
N       -0.8454623523   -1.4846649686    1.0160630123
C        0.6751391948   -0.4684308681   -1.7517617881
C        0.5976665984    0.7935828983   -1.3732567520
H        0.5236139316    2.4646210281   -0.0548565545
H        0.1369330777    1.5444022410    1.9960303203
H        0.1063888972   -0.7241923092    2.6029518674
H        0.6863039462   -1.5369818099   -1.6792153059
H        0.7707740057    1.5432169960   -2.1541868537
13   
Iteration 5 Energy -340.96853756
C       -1.4647216304   -1.3967206324   -0.1521289753
N       -2.0677661369   -1.4690940438   -1.1548658041
C        0.3617541628    1.3875098836   -0.0615350475
C        0.0683160952    0.8545212430    1.1568105384
C       -0.2228668730   -0.4974690084    1.5869381845
N       -0.8460123436   -1.4840547650    1.0178768935
C        0.6747091215   -0.4691786684   -1.7474999891
C        0.5979791644    0.7932441380   -1.3723384725
H        0.5234313975    2.4649651602   -0.0544818567
H        0.1361375885    1.5454552292    1.9965372142
H        0.1053513616   -0.7227243878    2.6046285927
H        0.6890284051   -1.5401730082   -1.6948412162
H        0.7717194014    1.5423782304   -2.1537831784
13   
Iteration 4 Energy -340.96836807
C       -1.4647092385   -1.3966320606   -0.1511464998
N       -2.0676881289   -1.4693202239   -1.1539096277
C        0.3616824328    1.3876895383   -0.0610845326
C        0.0679959890    0.8549847033    1.1573323673
C       -0.2233148974   -0.4968621984    1.5879047924
N       -0.8464077215   -1.4836259993    1.0191113641
C        0.6744150896   -0.4696683421   -1.7445423420
C        0.5982076379    0.7930110688   -1.3718602970
H        0.5233357717    2.4651628635   -0.0542937573
H        0.1356222500    1.5461906888    1.9968524042
H        0.1046485240   -0.7217232500    2.6057687613
H        0.6910142865   -1.5426386398   -1.7054815590
H        0.7722577188    1.5420912219   -2.1533341903
13   
Iteration 3 Energy -340.96821076
C       -1.4648790543   -1.3969950388   -0.1499627548
N       -2.0677224025   -1.4701455514   -1.1527861042
C        0.3618172282    1.3871950422   -0.0609609335
C        0.0677419291    0.8550701917    1.1576601891
C       -0.2239018260   -0.4965119183    1.5889386290
N       -0.8470517709   -1.4834839552    1.0205931698
C        0.6742141680   -0.4720557538   -1.7417678877
C        0.5985720938    0.7918222437   -1.3713001810
H        0.5235917454    2.4646787867   -0.0545455312
H        0.1352226030    1.5466968296    1.9968644741
H        0.1037209337   -0.7208168811    2.6070364825
H        0.6924529238   -1.5372466175   -1.7146056114
H        0.7732811427    1.5404519926   -2.1538470570
13   
Iteration 2 Energy -340.96716761
C       -1.4651660263   -1.3967125651   -0.1427717650
N       -2.0674180132   -1.4721928424   -1.1458385840
C        0.3615323889    1.3876946046   -0.0580784854
C        0.0655520867    0.8579820229    1.1611894832
C       -0.2272503642   -0.4924547080    1.5958550685
N       -0.8501676847   -1.4806532790    1.0295450033
C        0.6721368470   -0.4772487886   -1.7206809125
C        0.6003131983    0.7894006121   -1.3681763993
H        0.5233424528    2.4652412089   -0.0537456168
H        0.1317601218    1.5517323672    1.9987562095
H        0.0985679718   -0.7138506027    2.6151938258
H        0.7066911758   -1.5475987009   -1.7887034946
H        0.7771655592    1.5373200415   -2.1512274491
13   
Iteration 1 Energy -340.96652793
C       -1.4661448489   -1.3973185448   -0.1355597930
N       -2.0676381438   -1.4751948792   -1.1389747010
C        0.3617005945    1.3863767070   -0.0563483272
C        0.0636123962    0.8597337714    1.1640479258
C       -0.2307834209   -0.4893366891    1.6025595241
N       -0.8537515134   -1.4786282680    1.0383816521
C        0.6704422413   -0.4853798174   -1.7018248601
C        0.6020633970    0.7849982453   -1.3648862584
H        0.5241505238    2.4638761850   -0.0539112417
H        0.1290700345    1.5558502425    1.9997485534
H        0.0932421304   -0.7078161332    2.6231157083
H        0.7197230807   -1.5382552921   -1.8530949416
H        0.7813732427    1.5297538433   -2.1519363571
13   
Iteration 0 Energy -340.96631157
C       -1.4673937630   -1.3976354261   -0.1286740925
N       -2.0679676019   -1.4777427723   -1.1325137587
C        0.3619357979    1.3850289828   -0.0545084288
C        0.0619247931    0.8615575364    1.1670302732
C       -0.2340049822   -0.4862788705    1.6088530446
N       -0.8571885333   -1.4764355255    1.0466442821
C        0.6690026524   -0.4932486203   -1.6832789639
C        0.6040484660    0.7813279725   -1.3636075549
H        0.5245316051    2.4625560348   -0.0540913048
H        0.1261847420    1.5600251114    2.0008908906
H        0.0885382026   -0.7022152302    2.6304404447
H        0.7324920599   -1.5334977702   -1.9145940884
H        0.7849562754    1.5252179477   -2.1512738596
13   
Iteration 1 Energy -340.96653499
C       -1.4687995136   -1.3985026134   -0.1216726275
N       -2.0683717366   -1.4810196672   -1.1259679823
C        0.3624927315    1.3827320643   -0.0532269648
C        0.0603756685    0.8629102968    1.1696095239
C       -0.2373319329   -0.4835169273    1.6150956002
N       -0.8608811053   -1.4745673575    1.0550778690
C        0.6677143780   -0.5027915368   -1.6648138579
C        0.6063350952    0.7759695110   -1.3626957312
H        0.5253258879    2.4602688303   -0.0552418358
H        0.1234357942    1.5639743330    2.0014125417
H        0.0837030116   -0.6967055207    2.6377558852
H        0.7440732953   -1.5189227859   -1.9728981454
H        0.7889881401    1.5188307439   -2.1511173915
13   
Iteration 2 Energy -340.96726871
C       -1.4701221890   -1.3991422579   -0.1142157920
N       -2.0688306586   -1.4840255172   -1.1189001152
C        0.3628347830    1.3809238010   -0.0516372427
C        0.0584649432    0.8645142640    1.1724721870
C       -0.2410269082   -0.4804232430    1.6219474760
N       -0.8647471734   -1.4724806420    1.0640912908
C        0.6659133984   -0.5115209597   -1.6456730518
C        0.6080955622    0.7714360183   -1.3592564575
H        0.5263396340    2.4583223508   -0.0555169386
H        0.1207508110    1.5681209112    2.0022109165
H        0.0782909181   -0.6906642504    2.6457619936
H        0.7581054459   -1.5057547457   -2.0376185807
H        0.7929911475    1.5093536411   -2.1523488018
13   
Iteration 3 Energy -340.96858817
C       -1.4719927288   -1.4009857598   -0.1058531709
N       -2.0695918466   -1.4888327718   -1.1110169274
C        0.3638773930    1.3772409582   -0.0510501650
C        0.0567917127    0.8653775286    1.1745843946
C       -0.2452696106   -0.4774789023    1.6291041597
N       -0.8695004245   -1.4707735841    1.0741968225
C        0.6640451448   -0.5256834553   -1.6246574034
C        0.6106414787    0.7632738359   -1.3572434670
H        0.5284051613    2.4544401340   -0.0578740544
H        0.1183664809    1.5722326596    2.0016082969
H        0.0719770487   -0.6839218035    2.6543447916
H        0.7714313069   -1.4726482126   -2.1015533537
H        0.7978785974    1.4964187437   -2.1532730398
13   
Iteration 4 Energy -340.97027197
C       -1.4737708198   -1.4025011307   -0.0969870976
N       -2.0702664387   -1.4932150544   -1.1026406416
C        0.3647443520    1.3741345117   -0.0499343648
C        0.0548664825    0.8666861261    1.1773553520
C       -0.2497286350   -0.4741004977    1.6369028099
N       -0.8743434450   -1.4686913280    1.0848691039
C        0.6621118147   -0.5381310721   -1.6026777407
C        0.6128659114    0.7555092994   -1.3534549826
H        0.5300788481    2.4511259901   -0.0591235990
H        0.1155763134    1.5766959901    2.0017672617
H        0.0652695233   -0.6767147431    2.6635936452
H        0.7866529729   -1.4438178094   -2.1730406477
H        0.8030028342    1.4816790886   -2.1553122153
13   
Iteration 5 Energy -340.97030241
C       -1.4738062935   -1.4025635004   -0.0968770923
N       -2.0702868563   -1.4933260609   -1.1025359225
C        0.3647803533    1.3740306061   -0.0499783549
C        0.0548593279    0.8666652429    1.1773402498
C       -0.2497884917   -0.4740810245    1.6369818303
N       -0.8744216233   -1.4686913215    1.0850050415
C        0.6620929319   -0.5384814400   -1.6024470098
C        0.6129088136    0.7553274294   -1.3534437357
H        0.5301415455    2.4510155892   -0.0592173183
H        0.1155672302    1.5767299007    2.0017028576
H        0.0651746093   -0.6766284863    2.6636962518
H        0.7867459883   -1.4426477321   -2.1735423016
H        0.8030921788    1.4813101678   -2.1553676123
13   
Iteration 6 Energy -340.97034503
C       -1.4738561904   -1.4026381498   -0.0966974921
N       -2.0703135135   -1.4934713573   -1.1023652453
C        0.3648232589    1.3739024455   -0.0500150057
C        0.0548374645    0.8666540958    1.1773455693
C       -0.2498834323   -0.4740350808    1.6371216340
N       -0.8745382805   -1.4686751732    1.0852245133
C        0.6620577399   -0.5389328037   -1.6020449215
C        0.6129675861    0.7550843978   -1.3533988116
H        0.5302182258    2.4508789379   -0.0593200369
H        0.1155374167    1.5767979216    2.0016382377
H        0.0650259862   -0.6764854437    2.6638709647
H        0.7869616105   -1.4412274988   -2.1746023583
H        0.8032218421    1.4808070794   -2.1554401640
13   
Iteration 7 Energy -340.97040402
C       -1.4739256130   -1.4027364148   -0.0964347537
N       -2.0703496497   -1.4936690689   -1.1021156771
C        0.3648793525    1.3737325672   -0.0500537732
C        0.0548012788    0.8666471360    1.1773656418
C       -0.2500211981   -0.4739619991    1.6373305993
N       -0.8747043172   -1.4686450689    1.0855445437
C        0.6620046628   -0.5395416465   -1.6014468285
C        0.6130482592    0.7547491609   -1.3533202849
H        0.5303195586    2.4506977145   -0.0594493772
H        0.1154877742    1.5769025345    2.0015604309
H        0.0648109973   -0.6762751106    2.6641298029
H        0.7873028112   -1.4393528157   -2.1762531418
H        0.8034057974    1.4801123820   -2.1555402985
13   
Iteration 8 Energy -340.97048600
C       -1.4740215415   -1.4028635284   -0.0960516882
N       -2.0703981028   -1.4939353367   -1.1017519787
C        0.3649512349    1.3735109981   -0.0500882132
C        0.0547422996    0.8666507718    1.1774131392
C       -0.2502204221   -0.4738467929    1.6376418419
N       -0.8749395660   -1.4685916268    1.0860095996
C        0.6619248973   -0.5403527987   -1.6005603666
C        0.6131579426    0.7542899966   -1.3531864202
H        0.5304512305    2.4504611421   -0.0596069612
H        0.1154065522    1.5770625041    2.0014718559
H        0.0645011083   -0.6759668506    2.6645119757
H        0.7878384763   -1.4369202247   -2.1788079210
H        0.8036656047    1.4791611168   -2.1556779795
13   
Iteration 9 Energy -340.97060065
C       -1.4741535020   -1.4030270764   -0.0954974023
N       -2.0704627775   -1.4942926253   -1.1012259119
C        0.3650425894    1.3732238721   -0.0501097571
C        0.0546490400    0.8666734519    1.1775050891
C       -0.2505066851   -0.4736690898    1.6381005515
N       -0.8752712834   -1.4685022705    1.0866805740
C        0.6618064749   -0.5414281278   -1.5992597753
C        0.6133062001    0.7536618771   -1.3529665251
H        0.5306212291    2.4501542390   -0.0597954752
H        0.1152779932    1.5773032126    2.0013755147
H        0.0640570521   -0.6755186158    2.6650711188
H        0.7886621523   -1.4337822993   -2.1826931939
H        0.8040312310    1.4778628225   -2.1558679237
13   
Iteration 10 Energy -340.97076172
C       -1.4743352066   -1.4032409190   -0.0947027176
N       -2.0705496673   -1.4947758700   -1.1004717789
C        0.3651603444    1.3728476431   -0.0501110075
C        0.0545071571    0.8667237814    1.1776608763
C       -0.2509152332   -0.4734028231    1.6387667996
N       -0.8757379113   -1.4683619550    1.0876406251
C        0.6616335605   -0.5428654227   -1.5973774489
C        0.6135070309    0.7527951636   -1.3526199733
H        0.5308435138    2.4497515797   -0.0600247991
H        0.1150828482    1.5776573982    2.0012707150
H        0.0634243193   -0.6748730337    2.6658792759
H        0.7898933587   -1.4296760091   -2.1884604217
H        0.8045455996    1.4760798372   -2.1561332614
13   
Iteration 11 Energy -340.97098795
C       -1.4745865739   -1.4035311787   -0.0935720737
N       -2.0706680427   -1.4954417800   -1.0993987123
C        0.3653176819    1.3723415083   -0.0500899313
C        0.0542993260    0.8668084627    1.1778997920
C       -0.2514956507   -0.4730146812    1.6397208473
N       -0.8763950179   -1.4681537252    1.0890054274
C        0.6613857384   -0.5448253219   -1.5946899058
C        0.6137811600    0.7515767163   -1.3520904517
H        0.5311432103    2.4492090628   -0.0603207133
H        0.1147988316    1.5781667536    2.0011468769
H        0.0625251062   -0.6739496746    2.6670342985
H        0.7916817349   -1.4241146374   -2.1968184283
H        0.8052722096    1.4735878657   -2.1565101421
13   
Iteration 12 Energy -340.97130386
C       -1.4749372685   -1.4039545983   -0.0919787470
N       -2.0708338765   -1.4963929867   -1.0978852832
C        0.3655439713    1.3716246489   -0.0500723215
C        0.0540107541    0.8669199979    1.1782219348
C       -0.2523156118   -0.4724690124    1.6410605362
N       -0.8773238450   -1.4678670777    1.0909308490
C        0.6610400136   -0.5476111347   -1.5909248734
C        0.6141593303    0.7498119097   -1.3513061379
H        0.5315715027    2.4484400856   -0.0607524541
H        0.1144087484    1.5788766474    2.0009566925
H        0.0612492722   -0.6726392358    2.6686605600
H        0.7941750745   -1.4160447125   -2.2085355594
H        0.8063116485    1.4699648391   -2.1570583124
13   
Iteration 13 Energy -340.97173877
C       -1.4754216210   -1.4045653097   -0.0897315991
N       -2.0710625215   -1.4977405441   -1.0957486073
C        0.3658640159    1.3706255530   -0.0500499119
C        0.0536071574    0.8670750153    1.1786656876
C       -0.2534758124   -0.4716945026    1.6429454509
N       -0.8786348681   -1.4674670902    1.0936500906
C        0.6605544570   -0.5515251711   -1.5856433322
C        0.6146761777    0.7472526344   -1.3501166287
H        0.5321777113    2.4473653503   -0.0613755688
H        0.1138716705    1.5798688566    2.0006834396
H        0.0594346454   -0.6707699248    2.6709548224
H        0.7976791813   -1.4044846550   -2.2250725402
H        0.8077895206    1.4647191585   -2.1578444194
13   
Iteration 14 Energy -340.97231992
C       -1.4760840598   -1.4055272461   -0.0866154946
N       -2.0713849704   -1.4997324359   -1.0927773754
C        0.3663569746    1.3691594975   -0.0501427998
C        0.0530875544    0.8672219905    1.1791538772
C       -0.2550951553   -0.4706442373    1.6455155309
N       -0.8804818855   -1.4669683166    1.0974371636
C        0.6599021481   -0.5573163614   -1.5784788952
C        0.6153665136    0.7434249668   -1.3483218984
H        0.5330898825    2.4457868423   -0.0623924177
H        0.1131954935    1.5811915191    2.0001522542
H        0.0568640814   -0.6681295949    2.6741155332
H        0.8022967217   -1.3864578075   -2.2473151905
H        0.8099464151    1.4566505541   -2.1590134040
13   
Iteration 15 Energy -340.97303014
C       -1.4769379164   -1.4067689423   -0.0821459609
N       -2.0717615147   -1.5023537096   -1.0885118456
C        0.3669536162    1.3673678444   -0.0499599741
C        0.0522813503    0.8676075431    1.1800857814
C       -0.2574407518   -0.4690115301    1.6492555291