13   
IRC reactant Energy -340.97170846
C       -1.5534542542   -1.3342416440   -0.1739006257
N       -2.1690219478   -1.3544048884   -1.1704618520
C        0.3676368785    1.3633125300   -0.0898293921
C        0.1186996559    0.8114726619    1.1286829397
C       -0.2169732865   -0.5381359031    1.5445436912
N       -0.9163730545   -1.4756070795    0.9826924231
C        0.7891567491   -0.4684901389   -1.7551783943
C        0.5410876185    0.7888135409   -1.4235184871
H        0.5344176022    2.4403258548   -0.0721831169
H        0.2343637512    1.4834046437    1.9788141199
H        0.1366211414   -0.8004531671    2.5446259371
H        0.9441657209   -1.4328702354   -1.2929069224
H        0.5167331393    1.5255331956   -2.2300634369
13   
IRC product Energy -340.97461363
C       -1.4448207705   -1.4231384303   -0.0750679472
N       -2.0347222985   -1.5266451901   -1.0840969425
C        0.3714044857    1.3574000427   -0.0426645614
C        0.0435400493    0.8789553845    1.1923951047
C       -0.2708767608   -0.4511098092    1.6700718202
N       -0.8698095025   -1.4633659218    1.1190469486
C        0.6182052445   -0.6051966172   -1.5651449350
C        0.6137852175    0.6979084323   -1.3123235987
H        0.5522612033    2.4307594851   -0.0742854409
H        0.1031906475    1.6036791056    2.0036139921
H        0.0151531537   -0.6313697169    2.7091281173
H        0.7785074059   -1.2374648021   -2.4298677211
H        0.8512416388    1.3782474080   -2.1394879524
