13   
step_00 start
C       -3.0908813420   -0.0401490903   -1.0790435642
N       -2.3722541681    0.0687255002   -0.1491773091
C        0.9518351390   -0.2508283402   -0.1973680562
C        0.1422018867    0.5142457589    0.7849553392
C       -0.5153276443   -0.1480665918    1.9439615021
N        0.5284379634    0.4247256912    2.3103530546
C        0.6008677507   -0.1816813574   -1.6676475607
C        1.6593215219    0.4765124278   -1.3311159469
H        1.3795442267   -1.1732352941    0.2074268720
H       -0.2183240158    1.4916808582    0.4773689767
H       -1.3299902121   -0.7629760466    2.3076877207
H       -0.1386482739   -0.5051093801   -2.3853576616
H        2.4877216884    1.1278617979   -1.5665986696
13   
step_00 end
C       -2.9372910213   -0.1953868720   -0.4378785806
N       -1.8293172426    0.0797329658   -0.1416202258
C        0.5001399974   -0.4303984292   -0.6733618168
C       -0.4752889771    0.3617788095    0.2131073831
C       -0.2552064302    0.0038395513    1.6930459282
N        0.2712243896    0.7858459881    2.5114137286
C        1.0921671182    0.1832444173   -1.9109011467
C        1.8974118364    0.0711908797   -0.9013155286
H        0.3010640680   -1.5067533590   -0.6383359327
H       -0.2932131208    1.4334066203    0.0888261171
H       -0.5617553190   -1.0114562661    1.9893208995
H        0.8996599649    0.4679865867   -2.9342567218
H        2.8750828860    0.1943072233   -0.4602359175
