13   
Iteration 21 Energy -340.92386470
C       -1.3594563364    1.4379663237    0.4960239607
N       -1.5866891516    2.6304899408    0.2548505455
C        0.8150174393    0.4129025899   -0.5983309038
C       -0.0786108752    0.5295021732    0.6264808472
C       -1.1732473670   -0.4871025361    0.8512719957
N       -2.2234918548    0.2657791793    0.7517514652
C        1.3310221122   -0.9205709927   -1.0801565658
C        0.4037681348   -0.3835576146   -1.8100907218
H        1.4338585434    1.3057948857   -0.7357285304
H        0.5007358288    0.7756357740    1.5257759366
H       -1.1803988113   -1.5571256233    1.0499702514
H        2.0313285143   -1.7226576055   -0.8979062995
H       -0.2327223082   -0.4060204165   -2.6821980231
13   
Iteration 20 Energy -340.92386476
C       -1.3592294814    1.4383774463    0.4966284420
N       -1.5858952882    2.6311307016    0.2561102886
C        0.8145884911    0.4129417672   -0.5986951556
C       -0.0787304307    0.5292127059    0.6263426163
C       -1.1738016492   -0.4869822881    0.8508593186
N       -2.2237281744    0.2664579375    0.7521296313
C        1.3316878390   -0.9202904026   -1.0800336051
C        0.4038973983   -0.3843445693   -1.8100857272
H        1.4327065218    1.3062764125   -0.7364756047
H        0.5008977632    0.7747506432    1.5256194145
H       -1.1813938218   -1.5570927562    1.0490284865
H        2.0327180194   -1.7216920059   -0.8975514221
H       -0.2326033185   -0.4077095143   -2.6821627253
13   
Iteration 19 Energy -340.92386394
C       -1.3602108903    1.4361344045    0.4934202585
N       -1.5896734235    2.6278043172    0.2494521146
C        0.8165605470    0.4125627166   -0.5969015407
C       -0.0780507700    0.5299732659    0.6270997017
C       -1.1715246452   -0.4875284615    0.8532532399
N       -2.2228150371    0.2634123193    0.7507551148
C        1.3286448823   -0.9216342212   -1.0809301578
C        0.4033991756   -0.3803717946   -1.8102643498
H        1.4382047081    1.3037822189   -0.7323978030
H        0.5001842699    0.7792524564    1.5262518645
H       -1.1771785352   -1.5570776681    1.0544483513
H        2.0265133291   -1.7261302049   -0.8999094884
H       -0.2329397423   -0.3991432707   -2.6825633476
13   
Iteration 18 Energy -340.92385950
C       -1.3635699958    1.4325031261    0.4886402390
N       -1.5968949914    2.6210040039    0.2345167451
C        0.8196385136    0.4121354159   -0.5937240890
C       -0.0774485901    0.5328093493    0.6280488604
C       -1.1658664089   -0.4891461597    0.8579730173
N       -2.2205751365    0.2567651004    0.7524207691
C        1.3212730504   -0.9245576736   -1.0820505151
C        0.4032294844   -0.3718838946   -1.8118505593
H        1.4490032747    1.2986531766   -0.7244288898
H        0.4986439203    0.7880721743    1.5267898426
H       -1.1667604226   -1.5578951682    1.0636811842
H        2.0111117856   -1.7361948982   -0.9022383833
H       -0.2306706152   -0.3812284743   -2.6860642632
13   
Iteration 17 Energy -340.92384273
C       -1.3677293378    1.4246358720    0.4768917008
N       -1.6106405662    2.6081768544    0.2084888991
C        0.8262709363    0.4108869164   -0.5879425452
C       -0.0748487659    0.5346034823    0.6304928994
C       -1.1582948625   -0.4910566730    0.8677282646
N       -2.2175127433    0.2464638732    0.7510171025
C        1.3105036978   -0.9290955166   -1.0860045452
C        0.4026829741   -0.3569261321   -1.8134004019
H        1.4684405305    1.2894219760   -0.7095256265
H        0.4962584010    0.8026790159    1.5287067016
H       -1.1527310802   -1.5575048538    1.0849501125
H        1.9883785698   -1.7517751186   -0.9109431874
H       -0.2296638852   -0.3494736182   -2.6887454165
13   
Iteration 16 Energy -340.92380684
C       -1.3735042661    1.4151971416    0.4667172575
N       -1.6249420142    2.5919141421    0.1764930610
C        0.8334212305    0.4091421837   -0.5809172996
C       -0.0739130731    0.5398091192    0.6322683469
C       -1.1475444451   -0.4937659480    0.8784230071
N       -2.2133379349    0.2331047327    0.7542015902
C        1.2954628614   -0.9345905455   -1.0892069984
C        0.4024756476   -0.3390820776   -1.8160624347
H        1.4915231716    1.2771889773   -0.6920479719
H        0.4918292934    0.8227773537    1.5291700148
H       -1.1323128017   -1.5581419161    1.1053978520
H        1.9571436251   -1.7712353398   -0.9183858586
H       -0.2251874260   -0.3112817454   -2.6943366085
13   
Iteration 15 Energy -340.92375920
C       -1.3792635212    1.4071746833    0.4544190371
N       -1.6411297388    2.5767941139    0.1473631725
C        0.8399778812    0.4080886668   -0.5755584476
C       -0.0714398097    0.5423454466    0.6342615410
C       -1.1386775576   -0.4958533379    0.8901124387
N       -2.2095731025    0.2215960687    0.7560816914
C        1.2826404738   -0.9392132778   -1.0937030433
C        0.4035956811   -0.3219328015   -1.8192248161
H        1.5128215985    1.2660270601   -0.6759086924
H        0.4894577184    0.8374378092    1.5302353022
H       -1.1161989305   -1.5573128591    1.1299225468
H        1.9287461471   -1.7886350956   -0.9265776663
H       -0.2198429714   -0.2754803989   -2.6997091060
13   
Iteration 14 Energy -340.92369889
C       -1.3854873603    1.3969947992    0.4457952854
N       -1.6571764186    2.5608362026    0.1224928481
C        0.8472066662    0.4057851175   -0.5700976534
C       -0.0714272738    0.5475257017    0.6335886436
C       -1.1290106445   -0.4972381683    0.9001150022
N       -2.2063869919    0.2094622754    0.7614936549
C        1.2678729108   -0.9450269592   -1.0967459809
C        0.4054511868   -0.3053437718   -1.8227223643
H        1.5364458835    1.2517465964   -0.6594698951
H        0.4840952289    0.8592854632    1.5272755212
H       -1.0961854394   -1.5563389120    1.1489382711
H        1.8976763744   -1.8072505284   -0.9327691125
H       -0.2119602536   -0.2394017385   -2.7061802624
13   
Iteration 13 Energy -340.92363609
C       -1.3930014226    1.3939494390    0.4381305096
N       -1.6750715990    2.5508673485    0.1040945160
C        0.8508031081    0.4052695983   -0.5676500835
C       -0.0697424489    0.5511143252    0.6345942976
C       -1.1203749801   -0.4986644805    0.9094703349
N       -2.2025696950    0.1997669374    0.7655049223
C        1.2563850451   -0.9492372187   -1.0997943946
C        0.4095231749   -0.2924147347   -1.8283982924
H        1.5521147823    1.2421059726   -0.6484455697
H        0.4844071929    0.8682928894    1.5269728946
H       -1.0813430912   -1.5551376895    1.1685029844
H        1.8701310813   -1.8227801070   -0.9352556575
H       -0.2001472794   -0.2120962020   -2.7160125038
13   
Iteration 12 Energy -340.92356610
C       -1.3987081276    1.3830542837    0.4321402463
N       -1.6953061654    2.5393490197    0.0999586915
C        0.8588325064    0.4033150174   -0.5660132359
C       -0.0703761338    0.5561494476    0.6284087505
C       -1.1133866082   -0.4979559245    0.9146440786
N       -2.2012698971    0.1907500814    0.7715344676
C        1.2434787183   -0.9558559463   -1.1007158686
C        0.4137721490   -0.2805351565   -1.8321270290
H        1.5769110209    1.2264073186   -0.6367895719
H        0.4772514816    0.8921617059    1.5181446452
H       -1.0632913952   -1.5517546427    1.1809776709
H        1.8429205027   -1.8394002193   -0.9360832870
H       -0.1897141832   -0.1846489070   -2.7223656002
13   
Iteration 11 Energy -340.92345649
C       -1.4125379520    1.3818344891    0.4311494288
N       -1.7235771993    2.5321994707    0.0990523883
C        0.8627789696    0.4017661070   -0.5676249722
C       -0.0724488949    0.5641531499    0.6224861049
C       -1.1037035298   -0.4969871413    0.9234040050
N       -2.1986551166    0.1822112331    0.7856359549
C        1.2304130352   -0.9634932219   -1.1026684191
C        0.4251387113   -0.2699595735   -1.8437007662
H        1.5959141064    1.2125890526   -0.6269000775
H        0.4763576404    0.9062650330    1.5093745493
H       -1.0437740009   -1.5496716460    1.1955224154
H        1.8085306535   -1.8597303100   -0.9315786150
H       -0.1633225544   -0.1601405649   -2.7424380389
13   
Iteration 10 Energy -340.92330804
C       -1.4209312072    1.3800694599    0.4290550985
N       -1.7529644376    2.5278375761    0.1032377035
C        0.8690716513    0.3982942857   -0.5679729101
C       -0.0725968643    0.5697423051    0.6166187553
C       -1.0983282010   -0.4948693450    0.9265437326
N       -2.1974017380    0.1784516258    0.7957319251
C        1.2234197562   -0.9710436977   -1.1051071148
C        0.4326853015   -0.2637427200   -1.8487193828
H        1.6151903508    1.1974113535   -0.6192237575
H        0.4723789303    0.9210251403    1.5020003466
H       -1.0305108868   -1.5447657009    1.2041337937
H        1.7887381023   -1.8754331089   -0.9335141030
H       -0.1476368891   -0.1419410961   -2.7510701293
13   
Iteration 9 Energy -340.92314501
C       -1.4266638767    1.3802205697    0.4274499002
N       -1.7661154885    2.5230011259    0.1057208752
C        0.8748074130    0.3938335841   -0.5647444687
C       -0.0725056223    0.5715403181    0.6122211892
C       -1.0958292831   -0.4885450620    0.9300342437
N       -2.1958325507    0.1831689036    0.7998558556
C        1.2205032486   -0.9760614834   -1.1042796994
C        0.4353019191   -0.2635571362   -1.8483220948
H        1.6200220875    1.1943321968   -0.6167017651
H        0.4722600213    0.9225624434    1.4988146138
H       -1.0273486438   -1.5424379058    1.1995139226
H        1.7874556366   -1.8800853720   -0.9375447735
H       -0.1449409924   -0.1369361042   -2.7503038409
13   
Iteration 8 Energy -340.92298191
C       -1.4315690316    1.3856810198    0.4280140115
N       -1.7861167716    2.5292804087    0.1033230028
C        0.8792062745    0.3894236613   -0.5631564872
C       -0.0729437863    0.5761054738    0.6136159900
C       -1.0952328521   -0.4896014783    0.9260857312
N       -2.1980806917    0.1773431839    0.8043972052
C        1.2268201680   -0.9812930515   -1.1123295545
C        0.4379928258   -0.2623844439   -1.8463295998
H        1.6348838675    1.1795516505   -0.6110472741
H        0.4650717455    0.9362852111    1.4998885852
H       -1.0191793817   -1.5386842350    1.2052578717
H        1.7845070593   -1.8922863517   -0.9502293891
H       -0.1442455572   -0.1283849707   -2.7457761351
13   
Iteration 7 Energy -340.92272173
C       -1.4433419678    1.3907073474    0.4272022903
N       -1.7967296108    2.5311043807    0.1008944230
C        0.8871158106    0.3837683776   -0.5583877834
C       -0.0716698957    0.5777257087    0.6124058042
C       -1.0926006007   -0.4842929509    0.9269297889
N       -2.1981120964    0.1793758422    0.8064055562
C        1.2302000983   -0.9865127757   -1.1150417833
C        0.4389704571   -0.2640324053   -1.8423384763
H        1.6409454016    1.1755733922   -0.6086908215
H        0.4630142769    0.9369250584    1.5009859353
H       -1.0158585556   -1.5355388586    1.1979786986
H        1.7893429374   -1.8977670157   -0.9599926414
H       -0.1501623863   -0.1260000231   -2.7366370326
13   
Iteration 6 Energy -340.92243814
C       -1.4516364851    1.3942603257    0.4276652968
N       -1.8041584868    2.5357581460    0.0980133513
C        0.8918728980    0.3806723219   -0.5564443617
C       -0.0703158822    0.5779455357    0.6129286473
C       -1.0917036354   -0.4826396008    0.9258141950
N       -2.1987806604    0.1776383083    0.8073910060
C        1.2336921611   -0.9893454107   -1.1184076870
C        0.4394839728   -0.2646371242   -1.8400248049
H        1.6472811016    1.1709949600   -0.6068547043
H        0.4611618766    0.9403893999    1.5024916125
H       -1.0129404697   -1.5343635208    1.1967033473
H        1.7910632815   -1.9022091360   -0.9664293274
H       -0.1539058036   -0.1234281272   -2.7311326130
13   
Iteration 5 Energy -340.92218169
C       -1.4588047298    1.3970097039    0.4280010400
N       -1.8082149897    2.5383999289    0.0959150940
C        0.8958717273    0.3786992854   -0.5547277720
C       -0.0691982062    0.5773804169    0.6132019482
C       -1.0895868188   -0.4810948721    0.9260459245
N       -2.1991510392    0.1771110350    0.8079028630
C        1.2357957585   -0.9910294290   -1.1200343209
C        0.4397144059   -0.2655276485   -1.8383566351
H        1.6498565899    1.1699616394   -0.6066221783
H        0.4616727519    0.9394172612    1.5026929363
H       -1.0132380883   -1.5326862216    1.1942849664
H        1.7932097435   -1.9042347089   -0.9696881662
H       -0.1568132367   -0.1223703128   -2.7269017418
13   
Iteration 4 Energy -340.92046786
C       -1.4940309933    1.4082899046    0.4276294661
N       -1.8174459700    2.5509824002    0.0895763733
C        0.9028747713    0.3733654910   -0.5537327178
C       -0.0506780129    0.5659648545    0.6171686362
C       -1.0883680209   -0.4818887721    0.9209076636
N       -2.1986124456    0.1722779251    0.8085220618
C        1.2419014448   -0.9948685490   -1.1276630386
C        0.4393856447   -0.2664213044   -1.8356933816
H        1.6616165273    1.1605852151   -0.6001309756
H        0.4619878713    0.9531449736    1.5072447931
H       -1.0087551203   -1.5324938616    1.1964102840
H        1.7940934503   -1.9111907813   -0.9791254367
H       -0.1628552783   -0.1167114178   -2.7193997700
13   
Iteration 3 Energy -340.91874419
C       -1.5110690740    1.4085035971    0.4353528882
N       -1.8158670484    2.5554429456    0.0923412743
C        0.9090430954    0.3703802282   -0.5504009539
C       -0.0377501919    0.5449445553    0.6199089165
C       -1.0838970743   -0.4781497938    0.9201453934
N       -2.1949351411    0.1703704557    0.8086453671
C        1.2431194613   -0.9989206493   -1.1312017922
C        0.4394969980   -0.2678754495   -1.8338449470
H        1.6706194141    1.1535982211   -0.6028429642
H        0.4411933168    0.9809536857    1.5042400404
H       -1.0098572831   -1.5301579532    1.1906254112
H        1.7964461290   -1.9154415577   -0.9863453673
H       -0.1654287334   -0.1126122074   -2.7149093087
13   
Iteration 2 Energy -340.91802317
C       -1.5255051042    1.4118766622    0.4319070227
N       -1.8168510065    2.5585411778    0.0899874518
C        0.9108333363    0.3693600120   -0.5491863960
C       -0.0319688349    0.5417180307    0.6211201346
C       -1.0819342244   -0.4758492565    0.9199850554
N       -2.1939898084    0.1715655206    0.8091731417
C        1.2435645814   -0.9993653044   -1.1312169784
C        0.4391610328   -0.2686009433   -1.8329817748
H        1.6700719656    1.1546345218   -0.6034546167
H        0.4470555387    0.9733341394    1.5071821965
H       -1.0109225660   -1.5284151845    1.1887937313
H        1.7994744726   -1.9144160534   -0.9870205886
H       -0.1678755146   -0.1133472443   -2.7125744216
13   
Iteration 1 Energy -340.91397497
C       -1.6022704640    1.4303064212    0.4099672923
N       -1.8234836098    2.5734646897    0.0773065907
C        0.9173306350    0.3652981347   -0.5442767012
C       -0.0029255368    0.5306689596    0.6279751521
C       -1.0728979972   -0.4640077106    0.9177152431
N       -2.1898541388    0.1792605437    0.8123366142
C        1.2458748515   -1.0002036106   -1.1303872849
C        0.4375245664   -0.2719943445   -1.8293904473
H        1.6643010489    1.1615179831   -0.6059472776
H        0.4881098334    0.9216381637    1.5248907213
H       -1.0162440999   -1.5185321648    1.1818348219
H        1.8145652834   -1.9074659843   -0.9876010944
H       -0.1789165037   -0.1189150031   -2.7027096722
13   
Iteration 0 Energy -340.91319412
C       -1.6380727906    1.4417515821    0.4299019840
N       -1.8146358556    2.5694772170    0.0651100487
C        0.9211934386    0.3630502440   -0.5447619645
C        0.0255446606    0.4958174511    0.6360588813
C       -1.0708245656   -0.4657402024    0.9192474075
N       -2.1838066851    0.1838072701    0.8259733033
C        1.2537540806   -1.0007446458   -1.1403049238
C        0.4416530067   -0.2723411260   -1.8333979766
H        1.6691990760    1.1579431294   -0.6026389482
H        0.4701944136    0.9596672902    1.5196194105
H       -1.0283560558   -1.5239494676    1.1724596209
H        1.8143592986   -1.9121801466   -0.9923978634
H       -0.1790881536   -0.1155225176   -2.7031550218
13   
Iteration 1 Energy -340.91426795
C       -1.6760170728    1.4483065104    0.4353511779
N       -1.8073346772    2.5705668104    0.0794806457
C        0.9253401743    0.3620134118   -0.5406247029
C        0.0627616330    0.4700673281    0.6507390811
C       -1.0541173548   -0.4659280926    0.9092083877
N       -2.1677671008    0.1797566488    0.8165214377
C        1.2528594227   -1.0047874709   -1.1406549014
C        0.4376180995   -0.2750969961   -1.8275266894
H        1.6786766467    1.1508865776   -0.6019650644
H        0.4440193598    1.0167926023    1.5113494408
H       -1.0199494627   -1.5316128489    1.1323102630
H        1.7967001572   -1.9244487972   -0.9817176191
H       -0.1916759564   -0.1154796058   -2.6907574987
13   
Iteration 2 Energy -340.91958636
C       -1.7489186444    1.4610758148    0.4333289535
N       -1.8024197822    2.5770545921    0.0739832233
C        0.9396314059    0.3562767708   -0.5365686105
C        0.0944685134    0.4359745872    0.6562305506
C       -1.0470748362   -0.4607591800    0.9026782815
N       -2.1641788571    0.1878159357    0.8154219519
C        1.2572088326   -1.0066913068   -1.1467155640
C        0.4407752654   -0.2744164566   -1.8288549306
H        1.6842742670    1.1526664262   -0.6014138056
H        0.4488702903    1.0105005266    1.5138901880
H       -1.0341371875   -1.5208785598    1.1526894827
H        1.8102625226   -1.9226039434   -0.9973094351
H       -0.1976479214   -0.1149791289   -2.6856463279
13   
Iteration 3 Energy -340.92640429
C       -1.8182372918    1.4724427546    0.4419937436
N       -1.8084813887    2.5823806483    0.0777026892
C        0.9503175266    0.3479331029   -0.5318777701
C        0.1376980293    0.4105480519    0.6745907405
C       -1.0329020137   -0.4431148912    0.9213032665
N       -2.1536107348    0.1922619465    0.8245573171
C        1.2633645902   -1.0130943787   -1.1473907316
C        0.4389360346   -0.2806186004   -1.8197136775
H        1.6994056153    1.1402947422   -0.5974129397
H        0.4409392937    1.0486353274    1.4946347201
H       -1.0356590712   -1.5237424862    1.0761292115
H        1.8115203560   -1.9312618107   -0.9958095027
H       -0.2121770771   -0.1216283286   -2.6669931090
13   
Iteration 4 Energy -340.93247807
C       -1.8788323126    1.4775437314    0.4420449050
N       -1.8040772994    2.5859054751    0.0828941365
C        0.9640057545    0.3374117956   -0.5256988005
C        0.1720836903    0.3793092820    0.6927638114
C       -1.0226119984   -0.4356503855    0.9126123927
N       -2.1494233044    0.1956535002    0.8229665134
C        1.2695645603   -1.0172798588   -1.1551415358
C        0.4394127529   -0.2807857406   -1.8156252864
H        1.7121119967    1.1305712963   -0.5907337444
H        0.4259358414    1.0801563244    1.4790519518
H       -1.0400590314   -1.5162137441    1.0700383014
H        1.8165928065   -1.9372357875   -1.0103599439
H       -0.2235895880   -0.1183498106   -2.6530987432
13   
Iteration 5 Energy -340.93741595
C       -1.9330999192    1.4816012286    0.4430970733
N       -1.8041374187    2.5927781970    0.0973454806
C        0.9877464566    0.3178087640   -0.5133566252
C        0.2019792988    0.3444908656    0.7180866233
C       -1.0153961949   -0.4347551967    0.8900814933
N       -2.1527936680    0.1952009102    0.8210570056
C        1.2798159912   -1.0258334176   -1.1707019235
C        0.4433417128   -0.2802210815   -1.8106985096
H        1.7352738014    1.1105897863   -0.5794274274
H        0.3902712995    1.1407586120    1.4448476839
H       -1.0399844983   -1.5065805999    1.0853335515
H        1.8233792881   -1.9503773670   -1.0410674497
H       -0.2352822810   -0.1044246233   -2.6328830182
13   
Iteration 6 Energy -340.94025491
C       -1.9735425542    1.4914062275    0.4449593315
N       -1.8285312105    2.5971099834    0.1151052272
C        1.0100872600    0.2979665872   -0.4987539016
C        0.2313086086    0.3376790459    0.7296077027
C       -1.0079702411   -0.4161025849    0.8949886833
N       -2.1491566572    0.2036948050    0.8266689603
C        1.2916077808   -1.0365406250   -1.1760907047
C        0.4426131032   -0.2885459784   -1.7955451572
H        1.7595080379    1.0892202965   -0.5708120447
H        0.3599028173    1.1701116920    1.4071972936
H       -1.0376773046   -1.4990066018    1.0373966006
H        1.8371998965   -1.9617010065   -1.0629159722
H       -0.2542356684   -0.1042557632   -2.6000920610
13   
Iteration 7 Energy -340.94206004
C       -1.9927512450    1.4914545132    0.4556859468
N       -1.8575263917    2.6105210151    0.1323577215
C        1.0334628674    0.2800604806   -0.4879135089
C        0.2353186719    0.3320644339    0.7371607022
C       -1.0072219381   -0.4113627244    0.8879680288
N       -2.1568669360    0.2025759351    0.8247429160
C        1.3006880721   -1.0478786586   -1.1825634359
C        0.4460432397   -0.2933605038   -1.7851698596
H        1.7857926444    1.0675056646   -0.5616706992
H        0.3446000834    1.2143275287    1.3715358903
H       -1.0352058066   -1.4929764838    1.0242750867
H        1.8466571542   -1.9752854620   -1.0878683441
H       -0.2618765472   -0.0966096606   -2.5768264866
13   
Iteration 8 Energy -340.94340130
C       -2.0121394977    1.5011199512    0.4662062483
N       -1.8882108787    2.6226565495    0.1571635867
C        1.0484313485    0.2677003564   -0.4832800770
C        0.2406556402    0.3310348290    0.7350685580
C       -1.0043023884   -0.4053480999    0.8837398499
N       -2.1556401273    0.2046795016    0.8233450755
C        1.3068379556   -1.0579367894   -1.1846289277
C        0.4518821819   -0.2990138511   -1.7808694346
H        1.8039894667    1.0520824942   -0.5573047354
H        0.3283446791    1.2328741212    1.3425348739
H       -1.0307886805   -1.4878339468    1.0146629837
H        1.8517259839   -1.9867554587   -1.0978866046
H       -0.2596718149   -0.0942235793   -2.5670374388
13   
Iteration 9 Energy -340.94412470
C       -2.0228613118    1.5060878373    0.4782127907
N       -1.8995851259    2.6216221907    0.1561596050
C        1.0571084800    0.2593656914   -0.4782283884
C        0.2422360193    0.3323106461    0.7343742399
C       -1.0026018818   -0.4026651025    0.8829190885
N       -2.1548169305    0.2064731497    0.8243549751
C        1.3100725708   -1.0620767267   -1.1869818177
C        0.4543897421   -0.2993327912   -1.7772744302
H        1.8137284741    1.0431276728   -0.5516140930
H        0.3190470632    1.2422359176    1.3248881604
H       -1.0294300200   -1.4858319654    1.0119832697
H        1.8538999385   -1.9921436589   -1.1081567417
H       -0.2600731497   -0.0881367830   -2.5589227003
13   
Iteration 10 Energy -340.94503302
C       -2.0369649973    1.5095736615    0.4940724985
N       -1.9188415471    2.6223909219    0.1565718126
C        1.0693300827    0.2475193231   -0.4711740096
C        0.2432607809    0.3347632081    0.7329552055
C       -1.0000426962   -0.3983934682    0.8822717982
N       -2.1554111854    0.2073895540    0.8305633404
C        1.3135701356   -1.0693207154   -1.1897287636
C        0.4582918791   -0.3003262391   -1.7721724274
H        1.8292503633    1.0280115902   -0.5432362079
H        0.3079076270    1.2624323772    1.3003089521
H       -1.0250090573   -1.4824802951    1.0001018786
H        1.8551168131   -2.0016391396   -1.1209025974
H       -0.2593443299   -0.0788847008   -2.5479175223
13   
Iteration 11 Energy -340.94624854
C       -2.0561715203    1.5135890463    0.5141144485
N       -1.9517363625    2.6229296716    0.1607490276
C        1.0865258195    0.2322648700   -0.4627021687
C        0.2431180587    0.3416298975    0.7277075944
C       -0.9959543620   -0.3911791324    0.8808711088
N       -2.1564994445    0.2093263073    0.8440931557
C        1.3167762516   -1.0803807075   -1.1924078126
C        0.4656336023   -0.3010606340   -1.7666127285
H        1.8536261919    1.0059766443   -0.5323921905
H        0.2931694660    1.2862774071    1.2657345219
H       -1.0159788731   -1.4770386372    0.9835702981
H        1.8523657398   -2.0169395005   -1.1350297047
H       -0.2537606992   -0.0643591546   -2.5359815920
13   
Iteration 12 Energy -340.94781045
C       -2.0806124111    1.5160124937    0.5395453662
N       -1.9996726276    2.6231897195    0.1721679151
C        1.1082746578    0.2144075406   -0.4538297283
C        0.2419683738    0.3521281554    0.7166627120
C       -0.9899778080   -0.3819280953    0.8784950626
N       -2.1576202601    0.2111750548    0.8674471835
C        1.3182720872   -1.0952571965   -1.1937983007
C        0.4781517278   -0.3006818186   -1.7626492924
H        1.8868517439    0.9768228569   -0.5193166876
H        0.2759558860    1.3176051760    1.2188709084
H       -1.0029596469   -1.4693520025    0.9613644619
H        1.8416939938   -2.0392860412   -1.1460828158
H       -0.2392118481   -0.0437997650   -2.5271628269
13   
Iteration 13 Energy -340.94956392
C       -2.1073462611    1.5170216499    0.5684674072
N       -2.0566334911    2.6227732013    0.1904245591
C        1.1308687598    0.1972475369   -0.4467346161
C        0.2385947647    0.3658030920    0.6992119174
C       -0.9826946516   -0.3713862965    0.8751915100
N       -2.1580333025    0.2124303464    0.8959704455
C        1.3169849002   -1.1116684817   -1.1932644787
C        0.4951240563   -0.2989405714   -1.7622861562
H        1.9241473547    0.9447920009   -0.5058200270
H        0.2588571884    1.3484445162    1.1664304343
H       -0.9863610965   -1.4600471463    0.9404385516
H        1.8225037686   -2.0656778436   -1.1507410028
H       -0.2148981214   -0.0197559262   -2.5255745865
13   
Iteration 14 Energy -340.95124032
C       -2.1320675497    1.5161584362    0.5962111534
N       -2.1114259915    2.6212372421    0.2120583094
C        1.1498151444    0.1832273873   -0.4423607752
C        0.2338188798    0.3811837453    0.6789820604
C       -0.9748286741   -0.3616683621    0.8712311683
N       -2.1574405436    0.2128666115    0.9232417467
C        1.3132827598   -1.1267974134   -1.1908536236
C        0.5129578986   -0.2968156151   -1.7650590064
H        1.9575599021    0.9155667461   -0.4942878880
H        0.2466277717    1.3761426509    1.1203560473
H       -0.9699193937   -1.4509443023    0.9214197091
H        1.7989822901   -2.0910786668   -1.1485224844
H       -0.1862486255    0.0019576183   -2.5307024592
13   
Iteration 15 Energy -340.95299935
C       -2.1585797066    1.5134317844    0.6246059163
N       -2.1681838401    2.6188335178    0.2385865076
C        1.1661886198    0.1718148782   -0.4412993409
C        0.2273520786    0.3994046524    0.6539328535
C       -0.9664873602   -0.3512101789    0.8659125704
N       -2.1562395683    0.2120522617    0.9509818535
C        1.3065998121   -1.1417817155   -1.1870478957
C        0.5336063258   -0.2939940863   -1.7722448678
H        1.9900600719    0.8864393816   -0.4840147364
H        0.2387835490    1.4013128082    1.0804754532
H       -0.9506212059   -1.4405295839    0.9055514161
H        1.7685654043   -2.1174143134   -1.1390744488
H       -0.1499303120    0.0226766717   -2.5446513231
13   
Iteration 16 Energy -340.95482063
C       -2.1877044482    1.5098102087    0.6575280964
N       -2.2238011219    2.6157064658    0.2733203063
C        1.1800045794    0.1615479183   -0.4422036431
C        0.2226734127    0.4175581753    0.6296770247
C       -0.9587686530   -0.3400261823    0.8603459233
N       -2.1537974892    0.2100532146    0.9809934124
C        1.2983624830   -1.1569171118   -1.1825183442
C        0.5580274048   -0.2912591454   -1.7832829315
H        2.0216140654    0.8557552239   -0.4734116706
H        0.2265086032    1.4296879675    1.0323004580
H       -0.9314977350   -1.4292866678    0.8899817183
H        1.7338909549   -2.1440947247   -1.1243592790
H       -0.1043981876    0.0425007359   -2.5666571132
13   
Iteration 17 Energy -340.95659559
C       -2.2138474119    1.5064236182    0.6907394825
N       -2.2788471628    2.6130975163    0.3113276702
C        1.1912506037    0.1526964588   -0.4453758430
C        0.2146620759    0.4363911662    0.6032526407
C       -0.9522448135   -0.3279933686    0.8538494211
N       -2.1522880446    0.2080048426    1.0093073928
C        1.2892646682   -1.1716367278   -1.1766140184
C        0.5833803031   -0.2896505920   -1.7958360132
H        2.0483819588    0.8282859334   -0.4647184402
H        0.2181683132    1.4542228981    0.9914815046
H       -0.9127496979   -1.4169537794    0.8781853173
H        1.6992311877   -2.1690902265   -1.1091778167
H       -0.0532481117    0.0572383388   -2.5947073399
13   
Iteration 18 Energy -340.95828878
C       -2.2381011832    1.5035238312    0.7281433808
N       -2.3287196503    2.6109862996    0.3557520309
C        1.2016687195    0.1441787277   -0.4465366468
C        0.2101526838    0.4524015266    0.5798053674
C       -0.9461077150   -0.3169267405    0.8490984176
N       -2.1490993848    0.2067415495    1.0382864144
C        1.2813501791   -1.1853323294   -1.1711421558
C        0.6098539120   -0.2897336597   -1.8075652753
H        2.0745273900    0.7994615004   -0.4531481694
H        0.1986438496    1.4829568165    0.9319712542
H       -0.8983411651   -1.4056793246    0.8599474311
H        1.6670628961   -2.1915880726   -1.0928356162
H       -0.0017766634    0.0700459532   -2.6200624748
13   
Iteration 19 Energy -340.95988575
C       -2.2582881630    1.5016691389    0.7612932604
N       -2.3783540020    2.6102920520    0.3995449728
C        1.2093853653    0.1371020143   -0.4520652494
C        0.1994245811    0.4698230039    0.5508569255
C       -0.9413520920   -0.3057189059    0.8415936504