13   
Iteration 17 Energy -340.97464493
C       -1.4182708358   -1.5579978755   -0.1114761041
N       -1.9971024127   -1.6913567864   -1.1243453704
C        0.3120878394    1.2776941389   -0.0979790283
C        0.0048896707    0.7977584387    1.1429757649
C       -0.2882010903   -0.5315571628    1.6322363844
N       -0.8546979352   -1.5664067586    1.0871534229
C        0.5651168898   -0.6802644173   -1.6236460027
C        0.5461727115    0.6234422795   -1.3716654796
H        0.4783526139    2.3535571622   -0.1322492074
H        0.0643454223    1.5270858131    1.9498367701
H       -0.0113091708   -0.6919307158    2.6769640486
H        0.7244656454   -1.3061133319   -2.4908611790
H        0.7628780242    1.3081385031   -2.2003649024
