13   
Iteration 0 Energy -340.97464494
C       -1.4182708358   -1.5579978755   -0.1114761041
N       -1.9971024127   -1.6913567864   -1.1243453704
C        0.3120878394    1.2776941389   -0.0979790283
C        0.0048896707    0.7977584387    1.1429757649
C       -0.2882010903   -0.5315571628    1.6322363844
N       -0.8546979352   -1.5664067586    1.0871534229
C        0.5651168898   -0.6802644173   -1.6236460027
C        0.5461727115    0.6234422795   -1.3716654796
H        0.4783526139    2.3535571622   -0.1322492074
H        0.0643454223    1.5270858131    1.9498367701
H       -0.0113091708   -0.6919307158    2.6769640486
H        0.7244656454   -1.3061133319   -2.4908611790
H        0.7628780242    1.3081385031   -2.2003649024
13   
Iteration 1 Energy -340.97464475
C       -1.4192603547   -1.5591146693   -0.1113790425
N       -1.9986005188   -1.6931560444   -1.1238680386
C        0.3122525261    1.2777117168   -0.0981723074
C        0.0047608607    0.7977416406    1.1426967289
C       -0.2886147152   -0.5316677611    1.6315155976
N       -0.8550874071   -1.5668455930    1.0869798745
C        0.5654430196   -0.6801364449   -1.6238800549
C        0.5464969011    0.6235615603   -1.3718670880
H        0.4786834106    2.3535516912   -0.1323128810
H        0.0641614184    1.5269377572    1.9496923650
H       -0.0118648842   -0.6918918233    2.6762982288
H        0.7248817139   -1.3059741561   -2.4910823198
H        0.7633126844    1.3083038898   -2.2005017382
13   
Iteration 2 Energy -340.97464482
C       -1.4189486545   -1.5587026691   -0.1117068818
N       -1.9982191649   -1.6924568862   -1.1242689985
C        0.3121028811    1.2776984644   -0.0981368196
C        0.0047353185    0.7977572135    1.1427663355
C       -0.2884615307   -0.5317074148    1.6315298770
N       -0.8548595705   -1.5667597270    1.0866972479
C        0.5653031337   -0.6803605302   -1.6235539847
C        0.5462976785    0.6233762321   -1.3717549898
H        0.4784447615    2.3535491860   -0.1323915917
H        0.0640953012    1.5269544352    1.9497619522
H       -0.0117007819   -0.6920693805    2.6762913820
H        0.7247143757   -1.3063364087   -2.4906620192
H        0.7630080590    1.3080026581   -2.2005128250
