13   
Iteration 10 Energy -340.97464463
C       -1.3349331500   -1.5472911370    0.0228289569
N       -1.9553132748   -1.6991854387   -0.9624659244
C        0.3962761751    1.2871495038   -0.0868732156
C        0.1402531782    0.8303685279    1.1742800604
C       -0.1333566761   -0.4895761299    1.6988868843
N       -0.7222104223   -1.5337997847    1.1970455020
C        0.5843033514   -0.6989310892   -1.5851305872
C        0.5768575322    0.6092557768   -1.3568821820
H        0.5619125489    2.3619347316   -0.1476920175
H        0.2334885724    1.5740572501    1.9646753327
H        0.1861785754   -0.6311607427    2.7341087286
H        0.7070401548   -1.3410306474   -2.4463932298
H        0.7595034348    1.2782091796   -2.2063883088
13   
Iteration 9 Energy -340.97464458
C       -1.3353689159   -1.5461611116    0.0232298479
N       -1.9571678853   -1.6969637621   -0.9613283190
C        0.3951882254    1.2870547485   -0.0871008535
C        0.1387288578    0.8302440336    1.1739065479
C       -0.1322127493   -0.4901745062    1.6988094177
N       -0.7207175958   -1.5343720505    1.1965951562
C        0.5832478312   -0.6991505078   -1.5849688433
C        0.5778785233    0.6090209550   -1.3568180698
H        0.5593771208    2.3620451356   -0.1481274072
H        0.2306849399    1.5742509687    1.9641441836
H        0.1893526321   -0.6321216932    2.7333716361
H        0.7067910802   -1.3414247062   -2.4459955976
H        0.7642179356    1.2777524962   -2.2057176992
13   
Iteration 8 Energy -340.97464209
C       -1.3319302138   -1.5455413351    0.0223034694
N       -1.9505514386   -1.6963459838   -0.9642241730
C        0.3951867008    1.2864558554   -0.0868967654
C        0.1383181126    0.8298614001    1.1740600489
C       -0.1329073508   -0.4898615626    1.7006822739
N       -0.7207885417   -1.5338676653    1.1975381956
C        0.5795266233   -0.6993362725   -1.5855303485
C        0.5769743799    0.6086696947   -1.3570364701
H        0.5603852840    2.3613072827   -0.1477986141
H        0.2306702164    1.5743290185    1.9637853189
H        0.1881381692   -0.6313789735    2.7354986632
H        0.7019522861   -1.3416274766   -2.4467521427
H        0.7650257724    1.2773360180   -2.2056294562
13   
Iteration 7 Energy -340.97464283
C       -1.3390689011   -1.5459339862    0.0245617729
N       -1.9635360880   -1.6964114996   -0.9582344496
C        0.3950017531    1.2878910562   -0.0870723617
C        0.1373781621    0.8311637512    1.1734524418
C       -0.1305275071   -0.4909606040    1.6967721064
N       -0.7197527845   -1.5350971972    1.1957908883
C        0.5850522757   -0.6991009007   -1.5847668497
C        0.5803020667    0.6088720017   -1.3561165044
H        0.5572887297    2.3631379728   -0.1486106715
H        0.2258943867    1.5749620964    1.9643349542
H        0.1947550058   -0.6340258238    2.7300317474
H        0.7089554919   -1.3418842052   -2.4453188890
H        0.7682574091    1.2773873383   -2.2048241850
13   
Iteration 6 Energy -340.97464071
C       -1.3422129714   -1.5441345177    0.0275474068
N       -1.9675268248   -1.6935281919   -0.9547841233
C        0.3943769084    1.2859928551   -0.0875769091
C        0.1366570738    0.8299687271    1.1730417105
C       -0.1294715515   -0.4918855221    1.6984942258
N       -0.7211335147   -1.5347968314    1.1980867782
C        0.5890681864   -0.6992955524   -1.5885086774
C        0.5820032314    0.6081769589   -1.3569958632
H        0.5547871650    2.3614901025   -0.1491366130
H        0.2224482399    1.5748500902    1.9632224225
H        0.1976064619   -0.6346359290    2.7312562798
H        0.7142285567   -1.3404597913   -2.4500143624
H        0.7691690389    1.2782576021   -2.2046322752
13   
Iteration 5 Energy -340.97463709
C       -1.3418242861   -1.5435739084    0.0252933511
N       -1.9639317905   -1.6930579024   -0.9588147989
C        0.3940121780    1.2884305061   -0.0873308985
C        0.1369216072    0.8304939546    1.1722884452
C       -0.1284014422   -0.4925938024    1.6960462302
N       -0.7235964827   -1.5341690470    1.1976472384
C        0.5866794051   -0.6989122028   -1.5828279098
C        0.5817615468    0.6091500716   -1.3564968358
H        0.5549829556    2.3637966147   -0.1490199444
H        0.2205743750    1.5746286460    1.9634253154
H        0.2029768664   -0.6376211872    2.7271211178
H        0.7104297570   -1.3439041371   -2.4417393757
H        0.7694153105    1.2773323940   -2.2055919351
13   
Iteration 4 Energy -340.97462522
C       -1.3443940259   -1.5324442232    0.0215743354
N       -1.9723936783   -1.6731173581   -0.9600020292
C        0.3884217755    1.2879657961   -0.0868076891
C        0.1361292950    0.8311164668    1.1738410700
C       -0.1228510887   -0.4948630467    1.6939503726
N       -0.7204535268   -1.5327338824    1.1911306382
C        0.5955236528   -0.7042857856   -1.5764195437
C        0.5796933991    0.6039581827   -1.3538768059
H        0.5432225356    2.3640250794   -0.1523577816
H        0.2180424837    1.5750399551    1.9654006672
H        0.2139619300   -0.6450661789    2.7225469604
H        0.7238125369   -1.3506090344   -2.4338597063
H        0.7612847110    1.2710140294   -2.2051204879
13   
Iteration 3 Energy -340.97459883
C       -1.3398362389   -1.5258035051    0.0151095360
N       -1.9678364265   -1.6615208459   -0.9670769452
C        0.3859156930    1.2887216349   -0.0858264113
C        0.1359762342    0.8322245203    1.1751969086
C       -0.1197208609   -0.4954547613    1.6924396971
N       -0.7161148581   -1.5315367547    1.1848610892
C        0.5936185110   -0.7078669465   -1.5688088733
C        0.5764370563    0.6010872990   -1.3511863700
H        0.5389681306    2.3649113911   -0.1535194293
H        0.2172024061    1.5756208261    1.9673321893
H        0.2178057883   -0.6486452727    2.7203759989
H        0.7215738918   -1.3572733624   -2.4240084754
H        0.7560106729    1.2655357772   -2.2048889146
13   
Iteration 2 Energy -340.97451614
C       -1.3216015652   -1.5244078429    0.0045293319
N       -1.9362538009   -1.6614324759   -0.9858735529
C        0.3876820710    1.2892404624   -0.0831078856
C        0.1365908190    0.8350693799    1.1785291377
C       -0.1212972661   -0.4924862754    1.6949554623
N       -0.7130509672   -1.5286982104    1.1822621638
C        0.5741307919   -0.7107958235   -1.5644276234
C        0.5702152807    0.5985044130   -1.3478033948
H        0.5469851573    2.3644114741   -0.1522037917
H        0.2184741926    1.5787142357    1.9703778228
H        0.2106600707   -0.6459549242    2.7246585472
H        0.6939102146   -1.3624052610   -2.4190828042
H        0.7535550016    1.2602408481   -2.2028134132
13   
Iteration 1 Energy -340.97411693
C       -1.2851545951   -1.5275090657   -0.0126911439
N       -1.8704986263   -1.6717022668   -1.0196876030
C        0.3937394355    1.2898062082   -0.0781681544
C        0.1380444894    0.8399228361    1.1840815804
C       -0.1277291309   -0.4857453939    1.7013345713
N       -0.7105105137   -1.5237073616    1.1819591649
C        0.5326509701   -0.7132737606   -1.5607889430
C        0.5593551179    0.5956405402   -1.3432361224
H        0.5688289206    2.3624404861   -0.1483124930
H        0.2221332898    1.5844649745    1.9748627696
H        0.1909558843   -0.6368954613    2.7355622146
H        0.6348866154   -1.3670117791   -2.4160697948
H        0.7532981431    1.2535700439   -2.1988460463
13   
Iteration 33 Energy -340.97461262
C       -1.3574791871   -1.5341258690    0.0293445071
N       -1.9962595896   -1.6740256644   -0.9454635171
C        0.3873173870    1.2878938782   -0.0887330821
C        0.1357188347    0.8287350803    1.1709725975
C       -0.1219024757   -0.4972171103    1.6919281675
N       -0.7228893031   -1.5350345022    1.1931516824
C        0.6096547955   -0.7013901423   -1.5790564184
C        0.5845245112    0.6060769796   -1.3570403812
H        0.5378135855    2.3647595641   -0.1531094159
H        0.2171860600    1.5723912780    1.9627658769
H        0.2188058865   -0.6469162228    2.7193489360
H        0.7439143444   -1.3463436753   -2.4369273448
H        0.7635951506    1.2751964061   -2.2071816079
13   
Iteration 32 Energy -340.97461302
C       -1.3586578338   -1.5339230239    0.0293788131
N       -1.9970687417   -1.6735533493   -0.9454467795
C        0.3875218703    1.2882280501   -0.0890865627
C        0.1352197659    0.8288920478    1.1706850965
C       -0.1217731491   -0.4973292260    1.6914890819
N       -0.7232981420   -1.5349425317    1.1930145738
C        0.6103073831   -0.7010386774   -1.5791707229
C        0.5841164829    0.6071263890   -1.3561310820
H        0.5382784809    2.3649498732   -0.1523342240
H        0.2167736058    1.5724215180    1.9626947204
H        0.2204238507   -0.6477154438    2.7182803946
H        0.7457803202   -1.3479438734   -2.4356290629
H        0.7623761068    1.2748282473   -2.2077442462
13   
Iteration 31 Energy -340.97461111
C       -1.3593234675   -1.5335603919    0.0295251144
N       -1.9983556977   -1.6731433385   -0.9449271805
C        0.3872493950    1.2881221004   -0.0891919059
C        0.1354872510    0.8286951696    1.1705690388
C       -0.1215575440   -0.4975443889    1.6913839034
N       -0.7236039075   -1.5348611340    1.1929593003
C        0.6114076509   -0.7011265917   -1.5792044478
C        0.5842696479    0.6069449906   -1.3563845683
H        0.5374946731    2.3649361595   -0.1526452805
H        0.2169451302    1.5722506407    1.9625329150
H        0.2208692546   -0.6481170187    2.7180819308
H        0.7470939211   -1.3473856047   -2.4349170930
H        0.7620236929    1.2747894075   -2.2077817267
13   
Iteration 30 Energy -340.97460872
C       -1.3602460729   -1.5330996861    0.0298021271
N       -1.9998970775   -1.6727496366   -0.9442096346
C        0.3867324129    1.2880625628   -0.0893267032
C        0.1356522371    0.8285219162    1.1705491286
C       -0.1213999086   -0.4977241968    1.6913172009
N       -0.7239458298   -1.5347243183    1.1929383504
C        0.6123411681   -0.7010062187   -1.5790941839
C        0.5840714145    0.6070751449   -1.3566689200
H        0.5367461857    2.3649075651   -0.1526864554
H        0.2174024496    1.5720207943    1.9625549044
H        0.2213991840   -0.6485498459    2.7178502934
H        0.7493830412   -1.3477872865   -2.4349370580
H        0.7617607958    1.2750532056   -2.2080890497
13   
Iteration 29 Energy -340.97460714
C       -1.3607264987   -1.5329303762    0.0299392801
N       -2.0006755106   -1.6726534362   -0.9438850477
C        0.3864359135    1.2879890531   -0.0893559263
C        0.1357219734    0.8283690711    1.1704441553
C       -0.1213419825   -0.4978494900    1.6912209475
N       -0.7241139369   -1.5347010016    1.1928834113
C        0.6126743479   -0.7010075725   -1.5791112506
C        0.5839142947    0.6069178100   -1.3570791899
H        0.5365144073    2.3648368321   -0.1529377144
H        0.2177627734    1.5718127449    1.9624482435
H        0.2216559958   -0.6486838815    2.7176923986
H        0.7505403923   -1.3473966254   -2.4342450589
H        0.7616378307    1.2752968722   -2.2080142486
13   
Iteration 28 Energy -340.97460571
C       -1.3612615275   -1.5326871841    0.0300524141
N       -2.0013928313   -1.6723681663   -0.9436730599
C        0.3862342385    1.2880689281   -0.0894591110
C        0.1356034674    0.8283298742    1.1703643183
C       -0.1213202409   -0.4978871092    1.6912067151
N       -0.7243104051   -1.5346072949    1.1928363657
C        0.6128807486   -0.7006475997   -1.5791335812
C        0.5835862799    0.6073018549   -1.3568028000
H        0.5364248914    2.3649108863   -0.1526487647
H        0.2179289010    1.5717985402    1.9623340397
H        0.2222594173   -0.6490534277    2.7174335762
H        0.7520973139   -1.3487014676   -2.4343832826
H        0.7612697468    1.2755421657   -2.2081268298
13   
Iteration 27 Energy -340.97460407
C       -1.3617282995   -1.5324748654    0.0299970358
N       -2.0021335010   -1.6721830354   -0.9434678850
C        0.3858947947    1.2880065446   -0.0897387347
C        0.1356033805    0.8281663142    1.1701574099
C       -0.1212983993   -0.4979740571    1.6911484783
N       -0.7244121885   -1.5345567606    1.1926585420
C        0.6129062640   -0.7004572020   -1.5795303865
C        0.5831621892    0.6076325628   -1.3568038922
H        0.5362599617    2.3648107500   -0.1525398284
H        0.2184373506    1.5716888868    1.9620230091
H        0.2227111001   -0.6494277536    2.7171833030
H        0.7535207064   -1.3488026390   -2.4329452998
H        0.7610766410    1.2755712547   -2.2081417514
13   
Iteration 26 Energy -340.97459192
C       -1.3659371668   -1.5316370831    0.0312406173
N       -2.0064480296   -1.6705609496   -0.9421556369
C        0.3871867526    1.2887242519   -0.0893538404
C        0.1362187105    0.8283199260    1.1698202948
C       -0.1201462264   -0.4990073531    1.6895617503
N       -0.7271271940   -1.5341566505    1.1932004014
C        0.6211332955   -0.7012322810   -1.5772116162
C        0.5855512106    0.6066894474   -1.3566927403
H        0.5347599530    2.3658729552   -0.1533994596
H        0.2160388106    1.5711737224    1.9626587071
H        0.2260887644   -0.6511906387    2.7147699227
H        0.7566878925   -1.3475143055   -2.4328568535
H        0.7559932270    1.2745189587   -2.2095815465
13   
Iteration 25 Energy -340.97458058
C       -1.3696431564   -1.5304007221    0.0321288364
N       -2.0113409009   -1.6693003729   -0.9404576302
C        0.3861462763    1.2889771008   -0.0898693704
C        0.1366548191    0.8277301457    1.1692179606
C       -0.1196961963   -0.4997515713    1.6888481576
N       -0.7290265735   -1.5337457861    1.1931715245
C        0.6249275794   -0.7004302081   -1.5765018744
C        0.5848071925    0.6074812471   -1.3571934883
H        0.5332623366    2.3662194500   -0.1533113356
H        0.2174127852    1.5702232534    1.9623273577
H        0.2287210365   -0.6530009124    2.7131622655
H        0.7645286451   -1.3493282851   -2.4308442070
H        0.7532461563    1.2753266609   -2.2106781964
13   
Iteration 24 Energy -340.97457125
C       -1.3722879847   -1.5298080434    0.0326546207
N       -2.0143500041   -1.6684554976   -0.9396115902
C        0.3859969749    1.2893139333   -0.0901903285
C        0.1370488309    0.8273568397    1.1685969161
C       -0.1192702868   -0.5004133532    1.6880006289
N       -0.7306067829   -1.5335714436    1.1932390293
C        0.6281643916   -0.7001456915   -1.5757708152
C        0.5848268116    0.6077897746   -1.3575270084
H        0.5324786298    2.3666346266   -0.1534638979
H        0.2178053563    1.5695033790    1.9620420429
H        0.2307215699   -0.6542499655    2.7116968697
H        0.7687909931   -1.3493738418   -2.4281941592
H        0.7506815004    1.2754192834   -2.2114723083
13   
Iteration 23 Energy -340.97456237
C       -1.3745513384   -1.5294620460    0.0333100704
N       -2.0165912020   -1.6676849360   -0.9390328212
C        0.3861122417    1.2898702477   -0.0903261469
C        0.1374414850    0.8271668911    1.1681672740
C       -0.1188932255   -0.5009727953    1.6872070000
N       -0.7321895106   -1.5334597084    1.1935460186
C        0.6315165822   -0.6998049588   -1.5745096373
C        0.5852490076    0.6081690766   -1.3575863464
H        0.5317232015    2.3673282607   -0.1534468814
H        0.2177873535    1.5688480279    1.9621184369
H        0.2323676868   -0.6552304971    2.7104142376
H        0.7717226911   -1.3502791790   -2.4273815952
H        0.7483050272    1.2755116165   -2.2124796090
13   
Iteration 22 Energy -340.97455684
C       -1.3756864078   -1.5294498149    0.0335247480
N       -2.0176138321   -1.6674319343   -0.9388009317
C        0.3861252872    1.2901302437   -0.0904426187
C        0.1376847624    0.8269871124    1.1677947379
C       -0.1187082452   -0.5013439591    1.6866566137
N       -0.7329760345   -1.5335039683    1.1936643574
C        0.6332956430   -0.6997834306   -1.5739521558
C        0.5855296603    0.6081384485   -1.3579126121
H        0.5313562658    2.3676248475   -0.1536675000
H        0.2179634033    1.5684199681    1.9619857343
H        0.2331238262   -0.6556328101    2.7096663635
H        0.7726652008   -1.3495962041   -2.4256908080
H        0.7472404707    1.2754415010   -2.2128259286
13   
Iteration 21 Energy -340.97455071
C       -1.3775098225   -1.5291557438    0.0341529950
N       -2.0196283957   -1.6667429277   -0.9381617318
C        0.3859057528    1.2905483226   -0.0907323118
C        0.1379606842    0.8267208013    1.1673705837
C       -0.1184864187   -0.5017891248    1.6860848953
N       -0.7341920851   -1.5335195240    1.1939321141
C        0.6344117160   -0.6992782871   -1.5732420466
C        0.5849752117    0.6087776998   -1.3581122397
H        0.5310797347    2.3680847311   -0.1535179245
H        0.2184805319    1.5677255006    1.9619545529
H        0.2344242768   -0.6564209976    2.7086765035
H        0.7768885026   -1.3506746323   -2.4247132227
H        0.7456903113    1.2757241820   -2.2136921674
13   
Iteration 20 Energy -340.97454570
C       -1.3788052731   -1.5288701124    0.0345066586
N       -2.0210276225   -1.6660936969   -0.9377153064
C        0.3861480302    1.2907083498   -0.0908356353
C        0.1383314294    0.8264508045    1.1670500150
C       -0.1183179945   -0.5021751929    1.6856581799
N       -0.7350659621   -1.5335271794    1.1941163473
C        0.6343355200   -0.6992328376   -1.5730171736
C        0.5847883278    0.6087899873   -1.3584677726
H        0.5310452055    2.3682792341   -0.1535828351
H        0.2188896492    1.5672197570    1.9618576602
H        0.2351231422   -0.6568929224    2.7080560489
H        0.7808108684   -1.3503138147   -2.4233078903
H        0.7437446797    1.2756576235   -2.2143182965
13   
Iteration 19 Energy -340.97449183
C       -1.3847829046   -1.5280916094    0.0355402103
N       -2.0265267693   -1.6635887095   -0.9370953797
C        0.3857065667    1.2936343045   -0.0932644621
C        0.1401222337    0.8232960837    1.1628485312
C       -0.1171443691   -0.5056204344    1.6822550364
N       -0.7402061714   -1.5351134807    1.1949578541
C        0.6440817867   -0.6943341227   -1.5659196716
C        0.5863697202    0.6146898843   -1.3616628819
H        0.5279009885    2.3717940912   -0.1515847974
H        0.2208743585    1.5621866484    1.9594896753
H        0.2398584832   -0.6603402272    2.7034164894
H        0.7855278539   -1.3581753980   -2.4086152192
H        0.7382182228    1.2796629697   -2.2203653847
13   
Iteration 18 Energy -340.97439937
C       -1.3887982378   -1.5264368026    0.0356753938
N       -2.0299149249   -1.6618598177   -0.9373224680
C        0.3855868593    1.2934168983   -0.0958264521
C        0.1409392380    0.8201238169    1.1599930498
C       -0.1163324088   -0.5086215054    1.6807378899
N       -0.7425005445   -1.5364412756    1.1942952027
C        0.6469782607   -0.6895661400   -1.5616454166
C        0.5865929213    0.6214466558   -1.3696052111
H        0.5268777819    2.3720205880   -0.1491251293
H        0.2224353739    1.5588142444    1.9567827084
H        0.2433824901   -0.6643014018    2.7008259904
H        0.7900751687   -1.3669210578   -2.3881044190
H        0.7346780220    1.2883257976   -2.2266811390
13   
Iteration 17 Energy -340.97410849
C       -1.3903294341   -1.5231332293    0.0317493535
N       -2.0312723024   -1.6576924839   -0.9414282430
C        0.3847267242    1.2948298630   -0.0960330205
C        0.1413155764    0.8187877272    1.1594888409
C       -0.1140792615   -0.5112892210    1.6778561205
N       -0.7410272360   -1.5371551481    1.1887267526
C        0.6477940863   -0.6772222362   -1.5671401885
C        0.5856742133    0.6325286140   -1.3784856428
H        0.5250857470    2.3739490476   -0.1442092247
H        0.2231331553    1.5565063955    1.9572660030
H        0.2485647653   -0.6706732254    2.6963492562
H        0.7898496063   -1.4089884481   -2.3549285760
H        0.7305643599    1.3095523446   -2.2292114312
13   
Iteration 16 Energy -340.97361956
C       -1.3904751290   -1.5220074285    0.0276616542
N       -2.0315993585   -1.6557551838   -0.9454655826
C        0.3845566669    1.2951455887   -0.0972346882
C        0.1420425220    0.8179045145    1.1581040965
C       -0.1122202668   -0.5131689572    1.6743977267
N       -0.7393921443   -1.5380581618    1.1836240018
C        0.6482173474   -0.6727053783   -1.5757716959
C        0.5851545078    0.6381444341   -1.3840358758
H        0.5244966333    2.3745150592   -0.1431403427
H        0.2240500243    1.5547197668    1.9565485265
H        0.2519891610   -0.6749299413    2.6920136957
H        0.7851791249   -1.4228995890   -2.3171853696
H        0.7280009109    1.3190952766   -2.2295161466
13   
Iteration 15 Energy -340.97302522
C       -1.3900908654   -1.5192339955    0.0225443156
N       -2.0315285131   -1.6511156673   -0.9505348503
C        0.3834911672    1.2980500777   -0.0955725036
C        0.1425228089    0.8182694968    1.1588233503
C       -0.1099732005   -0.5147183523    1.6707019219
N       -0.7368504182   -1.5383250066    1.1772899286
C        0.6481964712   -0.6595570320   -1.5856205706
C        0.5843510615    0.6461425696   -1.3882363977
H        0.5229233931    2.3776378803   -0.1402426357
H        0.2248391713    1.5530117203    1.9593522046
H        0.2561002774   -0.6796605719    2.6871090958
H        0.7831840340   -1.4709237866   -2.2887801041
H        0.7228346126    1.3404226673   -2.2268337549
13   
Iteration 14 Energy -340.97232042
C       -1.3896092423   -1.5179851720    0.0179434197
N       -2.0314751815   -1.6484872711   -0.9549842098
C        0.3829621696    1.2997679020   -0.0958174577
C        0.1432636377    0.8178983511    1.1578079465
C       -0.1079520362   -0.5163147377    1.6668765647
N       -0.7347321752   -1.5391157214    1.1717275023
C        0.6485765964   -0.6526385778   -1.5961390513
C        0.5832982348    0.6514728208   -1.3913539018
H        0.5219524702    2.3795334303   -0.1389534459
H        0.2258722242    1.5511365597    1.9596419101
H        0.2594346191   -0.6835294994    2.6824597231
H        0.7783033527   -1.4926867996   -2.2537256934
H        0.7201053304    1.3509487151   -2.2254833067
13   
Iteration 13 Energy -340.97173993
C       -1.3892139100   -1.5169942548    0.0147268794
N       -2.0313933593   -1.6464449367   -0.9580938588
C        0.3825170152    1.3012032154   -0.0957170960
C        0.1437466439    0.8177588394    1.1573030845
C       -0.1065524880   -0.5173587420    1.6642559369
N       -0.7332129596   -1.5395979869    1.1678467395
C        0.6487772880   -0.6470376611   -1.6033922846
C        0.5825388242    0.6551949826   -1.3931628677
H        0.5211973835    2.3810836114   -0.1379203395
H        0.2265895734    1.5498528745    1.9601724904
H        0.2617320959   -0.6861616644    2.6792536756
H        0.7752687018   -1.5104346419   -2.2309203003
H        0.7180051909    1.3589363645   -2.2243520596
13   
Iteration 12 Energy -340.97130543
C       -1.3889155827   -1.5163689771    0.0124147838
N       -2.0313273213   -1.6450782316   -0.9603229134
C        0.3822263014    1.3021763310   -0.0957492722
C        0.1441151936    0.8176159784    1.1568364678
C       -0.1055553815   -0.5181173276    1.6623367162
N       -0.7321359361   -1.5399805693    1.1650705059
C        0.6489475022   -0.6432859009   -1.6087324764
C        0.5819854859    0.6576683720   -1.3943645262
H        0.5206946771    2.3821336195   -0.1373075647
H        0.2271412415    1.5489016768    1.9604240476
H        0.2633422790   -0.6880054526    2.6769338292
H        0.7728959405   -1.5217536305   -2.2139438022
H        0.7165856003    1.3640941118   -2.2235957956
13   
Iteration 11 Energy -340.97098980
C       -1.3886957121   -1.5159352472    0.0107760788
N       -2.0312756106   -1.6441141017   -0.9619013319
C        0.3820197713    1.3028754212   -0.0957736676
C        0.1443778986    0.8175138512    1.1564984263
C       -0.1048513570   -0.5186510900    1.6609735541
N       -0.7313721974   -1.5402543915    1.1631057076
C        0.6490691451   -0.6406141767   -1.6125379089
C        0.5815856450    0.6593735290   -1.3951556827
H        0.5203381972    2.3828856865   -0.1368842529
H        0.2275404684    1.5482227049    1.9605996407
H        0.2644724428   -0.6892961807    2.6752900314
H        0.7712024045   -1.5296626826   -2.2019227796
H        0.7155889044    1.3676566777   -2.2230678153
13   
Iteration 10 Energy -340.97076377
C       -1.3885363081   -1.5156382080    0.0096142711
N       -2.0312369132   -1.6434408222   -0.9630195935
C        0.3818757177    1.3033687538   -0.0958009517
C        0.1445662576    0.8174367952    1.1562473604
C       -0.1043537921   -0.5190293765    1.6600034092
N       -0.7308319333   -1.5404527635    1.1617144119
C        0.6491587347   -0.6387374224   -1.6152531850
C        0.5812987227    0.6605489658   -1.3956896264
H        0.5200883155    2.3834161915   -0.1365968675
H        0.2278291969    1.5477373978    1.9607115511
H        0.2652672820   -0.6902030080    2.6741235463
H        0.7699802225   -1.5351098904   -2.1933488053
H        0.7148944971    1.3701033870   -2.2227055206
13   
Iteration 9 Energy -340.97060283
C       -1.3884198933   -1.5154190983    0.0087958706
N       -2.0312074396   -1.6429502536   -0.9638071586
C        0.3817678948    1.3037361923   -0.0958023073
C        0.1446957749    0.8173901528    1.1560842029
C       -0.1040025200   -0.5192911520    1.6593250965
N       -0.7304473162   -1.5405876104    1.1607335737
C        0.6492181843   -0.6373560349   -1.6171574092
C        0.5810892763    0.6613877829   -1.3960384242
H        0.5199022910    2.3838108638   -0.1363702612
H        0.2280301368    1.5473980383    1.9608112179
H        0.2658280029   -0.6908408029    2.6733055082
H        0.7691445631   -1.5391358358   -2.1874305720
H        0.7144010451    1.3718577578   -2.2224493372
13   
Iteration 8 Energy -340.97048827
C       -1.3883344498   -1.5152511912    0.0082226155
N       -2.0311848466   -1.6425849061   -0.9643588084
C        0.3816843547    1.3040174240   -0.0957801776
C        0.1447822503    0.8173677502    1.1559887091
C       -0.1037549123   -0.5194690093    1.6588568742
N       -0.7301727555   -1.5406751457    1.1600451219
C        0.6492546699   -0.6363163479   -1.6184764050
C        0.5809346295    0.6619993824   -1.3962590369
H        0.5197593552    2.3841127703   -0.1361790170
H        0.2281661080    1.5471644759    1.9609080549
H        0.2662237458   -0.6912889568    2.6727371205
H        0.7685941954   -1.5422166644   -2.1834405987
H        0.7140476551    1.3731404185   -2.2222644525
13   
Iteration 7 Energy -340.97040634
C       -1.3882716464   -1.5151204215    0.0078240617
N       -2.0311674456   -1.6423102305   -0.9647423716
C        0.3816187421    1.3042351178   -0.0957430452
C        0.1448383155    0.8173620591    1.1559402880
C       -0.1035811630   -0.5195875083    1.6585379585
N       -0.7299769980   -1.5407292849    1.1595650704
C        0.6492751624   -0.6355266359   -1.6193785859
C        0.5808199589    0.6624498844   -1.3963926744
H        0.5196480939    2.3843464410   -0.1360150383
H        0.2282556909    1.5470063022    1.9610008683
H        0.2665021454   -0.6916023994    2.6723463923
H        0.7682450526   -1.5446083428   -2.1808139661
H        0.7137940912    1.3740850189   -2.2221289577
13   
Iteration 6 Energy -340.97034739
C       -1.3882257068   -1.5150191527    0.0075488409
N       -2.0311541536   -1.6421045328   -0.9650072794
C        0.3815676261    1.3044024870   -0.0957006313
C        0.1448738967    0.8173658509    1.1559207698
C       -0.1034598928   -0.5196653431    1.6583228621
N       -0.7298380305   -1.5407613987    1.1592324712
C        0.6492855347   -0.6349300032   -1.6199897955
C        0.5807353531    0.6627813223   -1.3964705002
H        0.5195620855    2.3845260322   -0.1358777590
H        0.2283135931    1.5469003650    1.9610845487
H        0.2666970232   -0.6918204098    2.6720799701
H        0.7680299571   -1.5464535776   -2.1791142490
H        0.7136127141    1.3747783606   -2.2220292483
13   
Iteration 5 Energy -340.97030479
C       -1.3881923800   -1.5149421230    0.0073594431
N       -2.0311441482   -1.6419522858   -0.9651895916
C        0.3815285802    1.3045290245   -0.0956602768
C        0.1448962870    0.8173736344    1.1559166283
C       -0.1033755697   -0.5197162334    1.6581782738
N       -0.7297398645   -1.5407799590    1.1590028577
C        0.6492901594   -0.6344853199   -1.6204024300
C        0.5806735315    0.6630231923   -1.3965145852
H        0.5194967712    2.3846618019   -0.1357672129
H        0.2283507529    1.5468296893    1.9611551641
H        0.2668329058   -0.6919714887    2.6718989068
H        0.7678992904   -1.5478526122   -2.1780209293
H        0.7134836840    1.3752826795   -2.2219562479
13   
Iteration 4 Energy -340.97027438
C       -1.3881682058   -1.5148774232    0.0072411977
N       -2.0311361590   -1.6418336756   -0.9653034855
C        0.3814958246    1.3046323449   -0.0956109395
C        0.1449056489    0.8173901021    1.1559346797
C       -0.1033209454   -0.5197421704    1.6580955630
N       -0.7296731141   -1.5407834907    1.1588578927
C        0.6492872509   -0.6341349404   -1.6206415179
C        0.5806277528    0.6632075847   -1.3965241944
H        0.5194428660    2.3847723886   -0.1356630302
H        0.2283677960    1.5467905364    1.9612279318
H        0.2669219947   -0.6920684070    2.6717905403
H        0.7678568855   -1.5490100844   -2.1775058416
H        0.7133924049    1.3756572351   -2.2218987961
13   
Iteration 3 Energy -340.96859007
C       -1.3870295932   -1.5133610950   -0.0017104532
N       -2.0309711951   -1.6375863585   -0.9738697031
C        0.3806658877    1.3076324329   -0.0969284511
C        0.1465919201    0.8162746106    1.1529683014
C       -0.0995371841   -0.5228550555    1.6502342940