13   
Iteration 5 Energy -340.97464468
C       -1.3351197047   -1.5475505954    0.0226376087
N       -1.9554998295   -1.6994448971   -0.9626572726
C        0.3960896204    1.2868900454   -0.0870645638
C        0.1400666235    0.8301090695    1.1740887122
C       -0.1335432308   -0.4898355883    1.6986955361
N       -0.7223969770   -1.5340592431    1.1968541538
C        0.5841167967   -0.6991905476   -1.5853219354
C        0.5766709775    0.6089963184   -1.3570735302
H        0.5617259942    2.3616752732   -0.1478833657
H        0.2333020177    1.5737977917    1.9644839845
H        0.1859920207   -0.6314202011    2.7339173804
H        0.7068536001   -1.3412901058   -2.4465845780
H        0.7593168801    1.2779497212   -2.2065796570
13   
Iteration 1 Energy -340.97170849
C       -1.4041835103   -1.5224547946   -0.0286500494
N       -2.0760783252   -1.6291072791   -0.9824075172
C        0.3107938833    1.3086618309   -0.1686897125
C        0.1783646744    0.7919201925    1.0830261933
C       -0.0291580155   -0.5597165536    1.5698458450
N       -0.6889918991   -1.5684095124    1.0893601780
C        0.7658207633   -0.5560605453   -1.7881680517
C        0.4458467181    0.6929792734   -1.4883457744
H        0.3970721882    2.3947269477   -0.2018914307
H        0.2947198513    1.5057039520    1.8982381505
H        0.4032303489   -0.7532003513    2.5545308271
H        1.0195507876   -1.4868692216   -1.3013921495
H        0.3186840214    1.3919081910   -2.3185263595
