13   
step_01 start
C       -2.8232671911    0.4998337931    1.1681915364
N       -3.4290484985    1.4065810840    1.6077174040
C        1.2200307420    0.4988790655   -0.3554734163
C       -0.1530971716    0.5199263200    0.1662388941
C       -1.0053078772   -0.5819089445    0.2289819746
N       -2.2578697507   -0.5976406740    0.6967708317
C        2.0919979425   -0.7572626806   -0.2619220388
C        1.6485288934   -0.4913612022   -1.4423537108
H        1.7185231947    1.4683652146   -0.3238845957
H       -0.5293462823    1.4745430987    0.5306096627
H       -0.6558634806   -1.5474125818   -0.1297288952
H        2.6312666364   -1.3750439887    0.4394785764
H        1.5311082526   -0.7157231490   -2.4913428756
13   
step_01 end
C       -1.4883687446   -1.6022024510    0.0502936605
N       -1.7389564243   -2.1795367586   -0.9464640735
C        0.5993436523    0.9714962195   -0.5165112573
C       -0.0082778493    0.9931899511    0.8207111478
C       -0.7527834110    0.0654756739    1.5622540023
N       -1.3442408534   -1.0854149171    1.2445976694
C        1.6354028701   -0.1094121805   -0.8916364061
C        0.5169161735   -0.1635794394   -1.5275645939
H        0.7893595099    1.9799051513   -0.8924359382
H        0.2100484796    1.9028117221    1.3803887294
H       -0.8936660350    0.3247607855    2.6109256704
H        2.6263485028   -0.4588739743   -0.6511170077
H       -0.1439176361   -0.6293425373   -2.2406581832
