13   
Climbing Image - Chain 65 Image 4 Energy  -340.8569172014 (+74.578 kcal/mol) RMSGrad 0.052 eV/Ang
C       -1.4287399469    1.6856510202   -0.1931540082
N       -1.0277003619    2.2298437790    0.7976591599
C        0.7846517578    0.3543152248   -0.4627370580
C       -0.2437801740    0.5549181714    0.6492807744
C       -1.1114489371   -0.6366066306    1.0056742508
N       -2.3357761012   -0.6325396437    1.2606168954
C        1.4581668728   -0.9785488544   -0.6732245741
C        0.5925126011   -0.6269797580   -1.5761246945
H        1.3350301443    1.2821582732   -0.6406670124
H        0.2810654613    0.8551342752    1.5619237231
H       -0.5560343841   -1.5864054290    1.0712661630
H        2.1886911293   -1.6793753354   -0.2968139103
H        0.0709370935   -0.8198935608   -2.5010323019
