13   
Climbing Image - Chain 100 Image 1 Energy  -340.9230472186 (+44.985 kcal/mol) RMSGrad 0.609 eV/Ang
C       -2.2231668493    1.1767689550    0.5481349774
N       -1.4272277982    1.9414322536    0.1131893503
C        1.0324136559    0.2921752944   -0.4074194027
C        0.0556471349    0.5177427191    0.6686523198
C       -0.9698930874   -0.4617769983    1.0599075940
N       -2.2332067508   -0.1285951822    1.0408998115
C        1.4768263472   -1.1202663527   -0.7569200911
C        0.7100542517   -0.5613698335   -1.6203944969
H        1.7341671199    1.1196748318   -0.5297969202
H        0.3258218883    1.2300654197    1.4477523647
H       -0.7049143340   -1.4691731544    1.3752818509
H        2.0458450965   -1.9630000064   -0.3807297041
H        0.1770425251   -0.5775560828   -2.5670983465
