3    
Iteration 1 Energy -92.33969073
C       -0.7404836798   -0.8145623633   -0.0000000000
N        0.0395821717    0.0435490818   -0.0000000000
H        0.7009015081    0.7710132815   -0.0000000000
3    
Iteration 1 Energy -92.35406017
C        0.0194880746    0.0214351856    0.0000000000
N       -0.7454619479   -0.8199438742    0.0000000000
H        0.7259738733    0.7985086887    0.0000000000
