13   
IRC reactant Energy -340.97170846
C       -1.5534542542   -1.3342416440   -0.1739006257
N       -2.1690219478   -1.3544048884   -1.1704618520
C        0.3676368785    1.3633125300   -0.0898293921
C        0.1186996559    0.8114726619    1.1286829397
C       -0.2169732865   -0.5381359031    1.5445436912
N       -0.9163730545   -1.4756070795    0.9826924231
C        0.7891567491   -0.4684901389   -1.7551783943
C        0.5410876185    0.7888135409   -1.4235184871
H        0.5344176022    2.4403258548   -0.0721831169
H        0.2343637512    1.4834046437    1.9788141199
H        0.1366211414   -0.8004531671    2.5446259371
H        0.9441657209   -1.4328702354   -1.2929069224
H        0.5167331393    1.5255331956   -2.2300634369
