13   
IRC reactant Energy -340.92654344
C       -3.0990601904   -0.2984773359   -0.2351331981
N       -2.0109979023   -0.0096569012    0.1166586549
C        0.3488673542   -0.4727101072   -0.3148742004
C       -0.6797489489    0.2886882913    0.5378607172
C       -0.5215854229   -0.0900144149    2.0205676876
N       -0.0460119113    0.6866195530    2.8744100090
C        0.9837775304    0.1696132094   -1.5160483772
C        1.7453139367    0.0572347710   -0.4731342338
H        0.1684535990   -1.5528594647   -0.3037412098
H       -0.5105112264    1.3650522629    0.4390087628
H       -0.8244719903   -1.1147720116    2.2864804942
H        0.8316833684    0.4663432190   -2.5427958191
H        2.6998661076    0.1915868414    0.0130009763
13   
IRC product Energy -340.92655386
C       -2.1658010158    1.3779203515   -0.7179877225
N       -1.3691764986    0.9715643080    0.0508153847
C        0.8388107442   -0.1171304789    0.1362011387
C       -0.3795391027    0.4338113602    0.9173370829
C       -0.9944451935   -0.6907281160    1.7675150119
N       -0.8031710928   -0.7996226002    2.9963906297
C        0.7117059349   -0.7909128539   -1.1975194021
C        1.2203252572    0.4017374065   -1.2178655010
H        1.6088527517   -0.4392055802    0.8449008735
H       -0.0406537417    1.2244266865    1.5953767840
H       -1.5888915716   -1.4332979585    1.2133719861
H        0.4049050501   -1.6833532124   -1.7221022983
H        1.6426527824    1.2314385998   -1.7641737041
