13   
Iteration 1 Energy -340.92654345
C       -3.0988874419   -0.2982406541   -0.2351121770
N       -2.0107916330   -0.0095274647    0.1166663716
C        0.3489861357   -0.4726458742   -0.3150674342
C       -0.6795093500    0.2886940696    0.5378422371
C       -0.5212704840   -0.0902107060    2.0205008418
N       -0.0456827152    0.6863333758    2.8744170016
C        0.9838756404    0.1697606279   -1.5162128359
C        1.7454483356    0.0572132839   -0.4733305387
H        0.1684930965   -1.5527844431   -0.3040631483
H       -0.5102100732    1.3650601934    0.4391272318
H       -0.8242169494   -1.1149769146    2.2863150134
H        0.8317552253    0.4665968417   -2.5429282170
H        2.7000310262    0.1914255107    0.0127840224
13   
Iteration 0 Energy -340.92654344
C       -3.0990601904   -0.2984773359   -0.2351331981
N       -2.0109979023   -0.0096569012    0.1166586549
C        0.3488673542   -0.4727101072   -0.3148742004
C       -0.6797489489    0.2886882913    0.5378607172
C       -0.5215854229   -0.0900144149    2.0205676876
N       -0.0460119113    0.6866195530    2.8744100090
C        0.9837775304    0.1696132094   -1.5160483772
C        1.7453139367    0.0572347710   -0.4731342338
H        0.1684535990   -1.5528594647   -0.3037412098
H       -0.5105112264    1.3650522629    0.4390087628
H       -0.8244719903   -1.1147720116    2.2864804942
H        0.8316833684    0.4663432190   -2.5427958191
H        2.6998661076    0.1915868414    0.0130009763
13   
Iteration 209 Energy -340.92654345
C       -3.0990505892   -0.2986904750   -0.2351063724
N       -2.0110292534   -0.0098347499    0.1167917635
C        0.3487354915   -0.4726347964   -0.3149647168
C       -0.6797763576    0.2887052243    0.5378393084
C       -0.5213839473   -0.0898984717    2.0205771681
N       -0.0464295059    0.6870733038    2.8744513695
C        0.9838240025    0.1698073132   -1.5159921846
C        1.7452671916    0.0570692516   -0.4730141515
H        0.1680695471   -1.5527544454   -0.3041574410
H       -0.5106544474    1.3650787748    0.4389122365
H       -0.8237348623   -1.1148155959    2.2864909816
H        0.8318860866    0.4665709224   -2.5427580530
H        2.6998509477    0.1909716567    0.0131903554
13   
Iteration 208 Energy -340.92654343
C       -3.0978748666   -0.2954055716   -0.2371962473
N       -2.0099164228   -0.0078618758    0.1159553063
C        0.3498494105   -0.4727852256   -0.3138704429
C       -0.6788047075    0.2888508882    0.5387416791
C       -0.5227433883   -0.0911555839    2.0213360515
N       -0.0501505576    0.6853986186    2.8769065532
C        0.9826018589    0.1681921021   -1.5168835183
C        1.7455205956    0.0583298230   -0.4747270898
H        0.1706775594   -1.5531225775   -0.3007109777
H       -0.5085381425    1.3651558314    0.4409855783
H       -0.8245327654   -1.1166412487    2.2856727148
H        0.8289516725    0.4631240314   -2.5439110769
H        2.7005340578    0.1945687008    0.0099617334
13   
Iteration 207 Energy -340.92654274
C       -3.0952976801   -0.2897282085   -0.2418818609
N       -2.0077449337   -0.0050408021    0.1148116327
C        0.3518227725   -0.4728750400   -0.3113550422
C       -0.6768345382    0.2891697407    0.5404406548
C       -0.5248112482   -0.0930150260    2.0228237931
N       -0.0579815026    0.6830656311    2.8819558354
C        0.9801497896    0.1656678549   -1.5179387511
C        1.7462504566    0.0603840598   -0.4776590167
H        0.1744653312   -1.5534944309   -0.2953489609
H       -0.5050819553    1.3653635268    0.4440400775
H       -0.8247930973   -1.1198464274    2.2840423529
H        0.8228982132    0.4573440487   -2.5453462173
H        2.7025326963    0.1996529856    0.0036757663
13   
Iteration 206 Energy -340.92654067
C       -3.0922595379   -0.2823500241   -0.2472496829
N       -2.0050747928   -0.0008726541    0.1130897070
C        0.3542263607   -0.4730480663   -0.3088262641
C       -0.6745730582    0.2895283219    0.5426060277
C       -0.5275647350   -0.0957445161    2.0246885520
N       -0.0672987063    0.6798826778    2.8877669747
C        0.9772100964    0.1622785335   -1.5198244100
C        1.7466949442    0.0631143676   -0.4814570844
H        0.1798899129   -1.5540925747   -0.2880396144
H       -0.5004157583    1.3655711997    0.4487896982
H       -0.8254587923   -1.1240978284    2.2822727963
H        0.8161071914    0.4495776146   -2.5478603159
H        2.7040911788    0.2069008611   -0.0036961207
13   
Iteration 205 Energy -340.92653647
C       -3.0883746736   -0.2736108033   -0.2542404570
N       -2.0017591701    0.0036420775    0.1110444387
C        0.3573102758   -0.4731080195   -0.3050867588
C       -0.6717013977    0.2899922019    0.5451653472
C       -0.5308378280   -0.0988967862    2.0268287906
N       -0.0773202279    0.6752553277    2.8947664932
C        0.9734758898    0.1582955101   -1.5215709837
C        1.7475187680    0.0667563097   -0.4859338618
H        0.1863911035   -1.5546055160   -0.2792231172
H       -0.4950770822    1.3658531990    0.4538838464
H       -0.8277374866   -1.1286546183    2.2799801447
H        0.8071331008    0.4400261345   -2.5502984528
H        2.7065530321    0.2157028954   -0.0130551660
13   
Iteration 204 Energy -340.92652576
C       -3.0818901121   -0.2590519586   -0.2657398753
N       -1.9962299222    0.0114252063    0.1073838978
C        0.3622886521   -0.4730689663   -0.2993848193
C       -0.6671847257    0.2907542454    0.5494717321
C       -0.5361651001   -0.1045180314    2.0303471945
N       -0.0926046699    0.6671170179    2.9056284951
C        0.9672741601    0.1517271090   -1.5248253047
C        1.7482239456    0.0732115120   -0.4932885064
H        0.1977195119   -1.5553242371   -0.2641720449
H       -0.4860326898    1.3662844905    0.4632435174
H       -0.8323693696   -1.1361795344    2.2765143690
H        0.7930003613    0.4233440358   -2.5549606574
H        2.7095442624    0.2309270233   -0.0279577344
13   
Iteration 203 Energy -340.92650221
C       -3.0722142774   -0.2384672581   -0.2830208827
N       -1.9883302785    0.0220741692    0.1021176771
C        0.3694900274   -0.4729176249   -0.2907980245
C       -0.6608539566    0.2917347380    0.5555518332
C       -0.5436067764   -0.1125379888    2.0351163119
N       -0.1112285882    0.6543396823    2.9200847299
C        0.9582634858    0.1423539554   -1.5288513437
C        1.7490459869    0.0828371912   -0.5035530153
H        0.2142566587   -1.5560899465   -0.2426577247
H       -0.4736824889    1.3667734052    0.4762934595
H       -0.8414171930   -1.1459619487    2.2718646012
H        0.7723962988    0.3993039793   -2.5606972164
H        2.7134554054    0.2532055589   -0.0491901419
13   
Iteration 202 Energy -340.92646623
C       -3.0615786504   -0.2166208476   -0.3015177113
N       -1.9798530925    0.0334043356    0.0964246629
C        0.3772476426   -0.4728069784   -0.2818611401
C       -0.6543273331    0.2926245941    0.5620119421
C       -0.5516497940   -0.1211233355    2.0400184417
N       -0.1286016815    0.6399186927    2.9344511307
C        0.9487091794    0.1321554375   -1.5329643444
C        1.7494532537    0.0932392705   -0.5143849885
H        0.2325252005   -1.5567648127   -0.2197332290
H       -0.4607732172    1.3670749222    0.4903860367
H       -0.8529233954   -1.1556967217    2.2672686410
H        0.7507283593    0.3735226148   -2.5663288900
H        2.7166178324    0.2777207409   -0.0715102882
13   
Iteration 201 Energy -340.92641854
C       -3.0507133261   -0.1948319660   -0.3195543457
N       -1.9712466361    0.0446727156    0.0907573185
C        0.3851936511   -0.4726630109   -0.2728557278
C       -0.6477929656    0.2934739088    0.5683586273
C       -0.5598259240   -0.1296608365    2.0445994023
N       -0.1449024223    0.6248923054    2.9482635751
C        0.9392499314    0.1217382869   -1.5367048339
C        1.7497280036    0.1036593511   -0.5252851257
H        0.2513098964   -1.5571477100   -0.1968646167
H       -0.4481379935    1.3672831815    0.5043026493
H       -0.8656846351   -1.1649422310    2.2623993994
H        0.7291081917    0.3475925575   -2.5711323188
H        2.7192885324    0.3025813600   -0.0940237396
13   
Iteration 200 Energy -340.92635969
C       -3.0397419745   -0.1735099392   -0.3366846691
N       -1.9625831411    0.0558269505    0.0853211313
C        0.3930606352   -0.4724212133   -0.2642201838
C       -0.6413438197    0.2943817763    0.5745878132
C       -0.5678658874   -0.1379672268    2.0489207338
N       -0.1616111579    0.6102813468    2.9617093764
C        0.9300402150    0.1114208590   -1.5402219571
C        1.7497535611    0.1136630284   -0.5360945475
H        0.2699208147   -1.5571720001   -0.1746892959
H       -0.4357927166    1.3675100815    0.5181468979
H       -0.8777910170   -1.1740247907    2.2572164747
H        0.7081709166    0.3219941432   -2.5754458281
H        2.7213578755    0.3266648969   -0.1162856822
13   
Iteration 199 Energy -340.92629104
C       -3.0287777920   -0.1529381975   -0.3529703259
N       -1.9540517814    0.0666203963    0.0802796573
C        0.4006347206   -0.4720698355   -0.2559656962
C       -0.6350380879    0.2953552931    0.5806235788
C       -0.5754782521   -0.1458677182    2.0529334178
N       -0.1791996932    0.5966543886    2.9747503246
C        0.9211407021    0.1014805844   -1.5433497146
C        1.7496122987    0.1229704993   -0.5466802924
H        0.2878188059   -1.5568170238   -0.1536276074
H       -0.4239872439    1.3677727873    0.5315884971
H       -0.8881846888   -1.1829784358    2.2517384941
H        0.6880515782    0.2973161021   -2.5789533952
H        2.7230337378    0.3491490721   -0.1381066744
13   
Iteration 198 Energy -340.92621339
C       -3.0176687963   -0.1328315773   -0.3689892319
N       -1.9456478945    0.0771223273    0.0755892315
C        0.4079683039   -0.4717453250   -0.2480703898
C       -0.6289224773    0.2962839694    0.5865806875
C       -0.5827770496   -0.1533882284    2.0567922542
N       -0.1975882061    0.5840524146    2.9873637039
C        0.9124629852    0.0917847155   -1.5461272535
C        1.7492821117    0.1315583444   -0.5570253647
H        0.3050967394   -1.5562834566   -0.1335850865
H       -0.4126449023    1.3679724936    0.5447824632
H       -0.8967598167   -1.1918822651    2.2463132776
H        0.6684726730    0.2736967358   -2.5817986762
H        2.7243006334    0.3703077643   -0.1595653517
13   
Iteration 197 Energy -340.92612251
C       -3.0056387188   -0.1116432376   -0.3862168999
N       -1.9369416712    0.0880815241    0.0709065435
C        0.4156307270   -0.4715988084   -0.2398651186
C       -0.6226684347    0.2970973779    0.5928458193
C       -0.5904351689   -0.1610641647    2.0606929575
N       -0.2168269359    0.5711816938    3.0000577224
C        0.9034413551    0.0814097423   -1.5486379282
C        1.7487931870    0.1400487097   -0.5678296085
H        0.3232291309   -1.5556892816   -0.1129745782
H       -0.4011247304    1.3679726934    0.5584175492
H       -0.9049626894   -1.2010845622    2.2408069246
H        0.6479014406    0.2497076337   -2.5837580082
H        2.7251768125    0.3922285922   -0.1821851114
13   
Iteration 196 Energy -340.92601871
C       -2.9926121332   -0.0893485719   -0.4047763829
N       -1.9279589743    0.0996327803    0.0661418010
C        0.4238017921   -0.4717231878   -0.2312914902
C       -0.6163853307    0.2977141601    0.5994058371
C       -0.5987695718   -0.1689494318    2.0646004760
N       -0.2350113762    0.5572417977    3.0124785102
C        0.8942146763    0.0699263712   -1.5508731826
C        1.7481157879    0.1485980047   -0.5790299213
H        0.3426815941   -1.5551305173   -0.0915314524
H       -0.3895765378    1.3677301052    0.5725044320
H       -0.9145368193   -1.2101843335    2.2354310271
H        0.6262973366    0.2252166693   -2.5849244725
H        2.7253138603    0.4159240663   -0.2058749178
13   
Iteration 195 Energy -340.92592352
C       -2.9813844180   -0.0703699389   -0.4205734818
N       -1.9203954551    0.1096059531    0.0619859753
C        0.4309665865   -0.4719289349   -0.2238771840
C       -0.6112687493    0.2981709816    0.6048998414
C       -0.6062590169   -0.1756339008    2.0676067172
N       -0.2477422506    0.5441575511    3.0223115627
C        0.8865903815    0.0595007108   -1.5524683014
C        1.7473919231    0.1559351727   -0.5884956304
H        0.3599440485   -1.5545150815   -0.0729228819
H       -0.3801630517    1.3674209908    0.5842679850
H       -0.9248700927   -1.2172386802    2.2308037354
H        0.6080565487    0.2042592416   -2.5851354342
H        2.7247078498    0.4372838469   -0.2261426396
13   
Iteration 194 Energy -340.92583896
C       -2.9719191430   -0.0545052342   -0.4335305643
N       -1.9139725524    0.1179978875    0.0583342538
C        0.4370631721   -0.4719126602   -0.2175726417
C       -0.6070746262    0.2986354316    0.6094300297
C       -0.6126080271   -0.1813603889    2.0698730160
N       -0.2566747577    0.5322305787    3.0301547028
C        0.8802868986    0.0505881269   -1.5536178471
C        1.7465270838    0.1624435536   -0.5963508344
H        0.3749202379   -1.5536444481   -0.0569499612
H       -0.3724284752    1.3672357601    0.5942366538
H       -0.9352112016   -1.2227526610    2.2266193656
H        0.5930314112    0.1859251355   -2.5852624153
H        2.7236342835    0.4557668309   -0.2431034941
13   
Iteration 193 Energy -340.92576311
C       -2.9637051874   -0.0408053580   -0.4444584325
N       -1.9083118779    0.1252137860    0.0550532410
C        0.4423286127   -0.4716402584   -0.2121163213
C       -0.6034585102    0.2991371383    0.6132691889
C       -0.6179758956   -0.1864912659    2.0716381929
N       -0.2634885067    0.5213359744    3.0366891464
C        0.8747558506    0.0429868578   -1.5546075089
C        1.7454843904    0.1684697801   -0.6031522346
H        0.3881627566   -1.5524388840   -0.0429732038
H       -0.3657550150    1.3670863937    0.6030368568
H       -0.9451724735   -1.2272789410    2.2226541833
H        0.5803860955    0.1691526984   -2.5850174945
H        2.7223240644    0.4719199909   -0.2577553500
13   
Iteration 192 Energy -340.92569362
C       -2.9562965386   -0.0286018860   -0.4540119778
N       -1.9031586005    0.1316040785    0.0521224210
C        0.4470579023   -0.4712125640   -0.2071635863
C       -0.6002123358    0.2996329473    0.6167075860
C       -0.6226626478   -0.1911575103    2.0731499836
N       -0.2691634917    0.5113399723    3.0424260848
C        0.8699122285    0.0362857086   -1.5552270424
C        1.7443922899    0.1740756821   -0.6090819513
H        0.4001458928   -1.5512124325   -0.0303839548
H       -0.3597809550    1.3671050969    0.6110577601
H       -0.9546224795   -1.2312613852    2.2189537393
H        0.5691264090    0.1537147518   -2.5856518065
H        2.7208366303    0.4863354530   -0.2706369922
13   
Iteration 191 Energy -340.92563044
C       -2.9497941852   -0.0177324387   -0.4623098143
N       -1.8986221267    0.1372849210    0.0494882205
C        0.4511709006   -0.4707677248   -0.2029382468
C       -0.5973694445    0.3001143671    0.6196211652
C       -0.6267017793   -0.1953915698    2.0742943254
N       -0.2738997231    0.5023115301    3.0472781383
C        0.8654349273    0.0303563152   -1.5560884043
C        1.7432250651    0.1791515739   -0.6145105348
H        0.4108246456   -1.5497263944   -0.0193623107
H       -0.3545458693    1.3669032093    0.6181784664
H       -0.9631421320   -1.2346024816    2.2153852098
H        0.5596448528    0.1395566874   -2.5845879911
H        2.7193491726    0.4991899177   -0.2821879599
13   
Iteration 190 Energy -340.92556878
C       -2.9434637754   -0.0073457369   -0.4701073195
N       -1.8941910192    0.1427363447    0.0470501731
C        0.4551898228   -0.4702607873   -0.1987484259
C       -0.5946356791    0.3005722918    0.6225248223
C       -0.6305637629   -0.1994272186    2.0754588829
N       -0.2784702768    0.4936639851    3.0519684567
C        0.8614912372    0.0246623346   -1.5563781743
C        1.7421028635    0.1840103212   -0.6194250064
H        0.4211825686   -1.5484972744   -0.0086142824
H       -0.3495112859    1.3670364510    0.6251958015
H       -0.9714304401   -1.2379559002    2.2120391371
H        0.5502415136    0.1260540676   -2.5858147882
H        2.7176325376    0.5113990340   -0.2928890133
13   
Iteration 189 Energy -340.92550953
C       -2.9376506532    0.0024885370   -0.4772892576
N       -1.8901225551    0.1479090529    0.0447004037
C        0.4588333451   -0.4697901740   -0.1951022314
C       -0.5921290130    0.3010381168    0.6250552472
C       -0.6340980366   -0.2033097211    2.0763056816
N       -0.2825949272    0.4854508393    3.0560984717
C        0.8574465073    0.0192777573   -1.5572620238
C        1.7408480928    0.1885894909   -0.6243790814
H        0.4308870483   -1.5468275103    0.0012099799
H       -0.3448737490    1.3667463632    0.6317163852
H       -0.9790945134   -1.2408627182    2.2085642686
H        0.5421590902    0.1129803820   -2.5840780279
H        2.7159636676    0.5229574967   -0.3032795524
13   
Iteration 188 Energy -340.92544949
C       -2.9316892691    0.0122712732   -0.4843392331
N       -1.8859346564    0.1530903337    0.0424691275
C        0.4626029324   -0.4692431930   -0.1912200531
C       -0.5895916907    0.3014896616    0.6277688753
C       -0.6376677289   -0.2071232656    2.0773036607
N       -0.2869087709    0.4773152392    3.0603652616
C        0.8539074195    0.0138817222   -1.5573710507
C        1.7396665712    0.1931142680   -0.6289313775
H        0.4407355727   -1.5455366894    0.0113041940
H       -0.3402036936    1.3669434623    0.6384539216
H       -0.9868173035   -1.2440329949    2.2052791155
H        0.5334711318    0.1001382817   -2.5856311406
H        2.7140037893    0.5343398135   -0.3131910377
13   
Iteration 187 Energy -340.92539007
C       -2.9260813823    0.0218371190   -0.4910429306
N       -1.8819996641    0.1581659529    0.0402255306
C        0.4660935048   -0.4687431009   -0.1878101957
C       -0.5872069408    0.3019632283    0.6301607144
C       -0.6410402115   -0.2109165872    2.0779827067
N       -0.2909402947    0.4693452962    3.0641948446
C        0.8500086940    0.0085971058   -1.5582697710
C        1.7383057416    0.1974923253   -0.6337774637
H        0.4501933445   -1.5436653946    0.0207318830
H       -0.3357752319    1.3665857195    0.6448543729
H       -0.9940921336   -1.2468056817    2.2017078613
H        0.5259892760    0.0873185132   -2.5834181316
H        2.7121196018    0.5454734167   -0.3232791572
13   
Iteration 186 Energy -340.92532879
C       -2.9201651236    0.0315415992   -0.4977715643
N       -1.8778285716    0.1633552197    0.0380697383
C        0.4698164998   -0.4681440946   -0.1840235420
C       -0.5847180428    0.3024344866    0.6328292057
C       -0.6445345041   -0.2147008016    2.0788747636
N       -0.2953132374    0.4613044780    3.0682975392
C        0.8466339188    0.0032104473   -1.5582584158
C        1.7370265230    0.2019055053   -0.6382602804
H        0.4600309502   -1.5422343562    0.0306775095
H       -0.3312192501    1.3668211713    0.6516238753
H       -1.0015896795   -1.2499618141    2.1983112305
H        0.5175414955    0.0744872600   -2.5850784321
H        2.7098933258    0.5566288116   -0.3330313639
13   
Iteration 185 Energy -340.92526672
C       -2.9144742614    0.0412773258   -0.5043369384
N       -1.8738242598    0.1685704207    0.0358338424
C        0.4733380210   -0.4675912944   -0.1806493475
C       -0.5823318900    0.3029351948    0.6352222222
C       -0.6479314197   -0.2185647585    2.0794462412
N       -0.2995113787    0.4532200011    3.0720501596
C        0.8427239753   -0.0022269149   -1.5591452261
C        1.7355267486    0.2062716568   -0.6432001426
H        0.4696770183   -1.5401191974    0.0401731619
H       -0.3267746232    1.3664148411    0.6582003577
H       -1.0087921522   -1.2527632398    2.1945036227
H        0.5102167773    0.0613860492   -2.5825373875
H        2.7077317485    0.5678378279   -0.3433003020
13   
Iteration 184 Energy -340.92520225
C       -2.9083928387    0.0512400949   -0.5109934576
N       -1.8695216970    0.1739500076    0.0336706186
C        0.4771401835   -0.4669216775   -0.1768348759
C       -0.5798008321    0.3034478434    0.6379315658
C       -0.6514798185   -0.2224511909    2.0802533423
N       -0.3041115577    0.4449871232    3.0761284838
C        0.8393596732   -0.0077900995   -1.5590542892
C        1.7341020098    0.2107164394   -0.6478065714
H        0.4798398459   -1.5384592190    0.0502890287
H       -0.3221855365    1.3666666308    0.6652175254
H       -1.0163063617   -1.2559980801    2.1908618657
H        0.5017474231    0.0481150039   -2.5841062522
H        2.7051838107    0.5791450363   -0.3532967204
13   
Iteration 183 Energy -340.92513772
C       -2.9026123125    0.0611176563   -0.5174230319
N       -1.8654436558    0.1792839224    0.0314482894
C        0.4806977126   -0.4663132142   -0.1734788916
C       -0.5774134174    0.3039765482    0.6403308755
C       -0.6549089237   -0.2263649074    2.0807194806
N       -0.3084840006    0.4367965454    3.0798112597
C        0.8354475854   -0.0133714818   -1.5598888743
C        1.7324766587    0.2150528217   -0.6528209572
H        0.4896500296   -1.5361067828    0.0598447739
H       -0.3177280614    1.3662232664    0.6719459868
H       -1.0234202122   -1.2588247971    2.1868173088
H        0.4945541597    0.0347872151   -2.5812959984
H        2.7027587415    0.5903911203   -0.3637499578
13   
Iteration 182 Energy -340.92507263
C       -2.8965762324    0.0709588560   -0.5237733542
N       -1.8611585859    0.1846390990    0.0293648162
C        0.4844493523   -0.4655925625   -0.1697422705
C       -0.5749200572    0.3045179569    0.6429887544
C       -0.6583811626   -0.2301980274    2.0814166354
N       -0.3131383951    0.4286585966    3.0837314471
C        0.8322315901   -0.0188918638   -1.5596687855
C        1.7309718893    0.2193687603   -0.6573639629
H        0.4997571470   -1.5342987684    0.0697459128
H       -0.3132888550    1.3665131349    0.6789135948
H       -1.0306913711   -1.2620166135    2.1830654965
H        0.4863220623    0.0215781451   -2.5827973876
H        2.6999969223    0.6014111995   -0.3736206330
13   
Iteration 181 Energy -340.92500413
C       -2.8905066514    0.0812988158   -0.5302758844
N       -1.8568701045    0.1902788205    0.0270974034
C        0.4881668188   -0.4648961310   -0.1662764366
C       -0.5724523280    0.3050941868    0.6454825552
C       -0.6619645888   -0.2342886664    2.0817921264
N       -0.3178273767    0.4200740514    3.0874694267
C        0.8282017815   -0.0248167327   -1.5604508076
C        1.7291695192    0.2238281485   -0.6626059542
H        0.5100479648   -1.5316256537    0.0796841731
H       -0.3086514335    1.3660245749    0.6860251365
H       -1.0379695250   -1.2649660059    2.1786308254
H        0.4790106969    0.0075647742   -2.5797001283
H        2.6972195306    0.6130777301   -0.3846121721
13   
Iteration 180 Energy -340.92492168
C       -2.8829254272    0.0937004170   -0.5379785267
N       -1.8514862076    0.1971187814    0.0245277349
C        0.4928270238   -0.4639194601   -0.1617451266
C       -0.5693677467    0.3058201255    0.6487496651
C       -0.6662946872   -0.2391499286    2.0824703351
N       -0.3237361873    0.4097900548    3.0921664657
C        0.8241307041   -0.0318451194   -1.5602930034
C        1.7270884026    0.2291511647   -0.6684545005
H        0.5228246734   -1.5289220191    0.0919662688
H       -0.3031873842    1.3662422766    0.6948681103
H       -1.0469123800   -1.2688888406    2.1736299869
H        0.4691718575   -0.0092655233   -2.5804471108
H        2.6934416626    0.6268159834   -0.3972000352
13   
Iteration 179 Energy -340.92483971
C       -2.8756045416    0.1059571938   -0.5454352449
N       -1.8463145906    0.2038984386    0.0219504097
C        0.4972738883   -0.4629788121   -0.1576103960
C       -0.5664547644    0.3065385584    0.6517665452
C       -0.6705442126   -0.2439904041    2.0828478089
N       -0.3294504210    0.3995964383    3.0964925212
C        0.8196418481   -0.0389325542   -1.5608242187
C        1.7248407884    0.2343152191   -0.6745627278
H        0.5352083396   -1.5256069540    0.1037847045
H       -0.2977893638    1.3658499983    0.7035031161
H       -1.0554339900   -1.2724686170    2.1682615080
H        0.4604852115   -0.0259555942   -2.5777812150
H        2.6897161119    0.6404250015   -0.4101325474
13   
Iteration 178 Energy -340.92476908
C       -2.8691750798    0.1164525134   -0.5517486155
N       -1.8417632912    0.2097373622    0.0198222729
C        0.5011677083   -0.4620967205   -0.1538960163
C       -0.5638946815    0.3071850008    0.6544669491
C       -0.6741734710   -0.2481124742    2.0832440752
N       -0.3344757389    0.3908630992    3.1002575246
C        0.8161625010   -0.0449502916   -1.5607400916
C        1.7229202411    0.2387053069   -0.6795975644
H        0.5460260623   -1.5229500616    0.1140117575
H       -0.2932736551    1.3658991863    0.7110067460
H       -1.0627852857   -1.2756950799    2.1637792042
H        0.4525791760   -0.0402924129   -2.5774100529
H        2.6862598183    0.6519024844   -0.4209359251
13   
Iteration 177 Energy -340.92471543
C       -2.8643636084    0.1243934247   -0.5564745547
N       -1.8383701043    0.2141544109    0.0181930377
C        0.5040547934   -0.4614473905   -0.1512094916
C       -0.5620140072    0.3076710882    0.6564257663
C       -0.6769150708   -0.2512297125    2.0834189216
N       -0.3382456905    0.3842466679    3.1029831708
C        0.8133297850   -0.0495823254   -1.5609263523
C        1.7213882294    0.2419787670   -0.6835211537
H        0.5540856979   -1.5206848237    0.1216390937
H       -0.2898201171    1.3656785804    0.7166386084
H       -1.0681849240   -1.2780182342    2.1601812600
H        0.4469933996   -0.0511224976   -2.5757679943
H        2.6836359208    0.6606099572   -0.4293200483
13   
Iteration 176 Energy -340.92467717
C       -2.8608541360    0.1300658805   -0.5598101211
N       -1.8358795183    0.2173105064    0.0170633452
C        0.5061444798   -0.4609611324   -0.1492066149
C       -0.5606211781    0.3080415340    0.6578745719
C       -0.6788481957   -0.2534433724    2.0835843218
N       -0.3409786318    0.3795145352    3.1049659361
C        0.8114878386   -0.0528411217   -1.5608068028
C        1.7202899305    0.2443036431   -0.6862247766
H        0.5599395942   -1.5191888810    0.1271078053
H       -0.2874444062    1.3657366333    0.7206603119
H       -1.0720722797   -1.2797488260    2.1577000386
H        0.4427777226   -0.0588758150   -2.5755166858
H        2.6816330839    0.6667343285   -0.4351310658
13   
Iteration 175 Energy -340.92465062
C       -2.8584729206    0.1339783942   -0.5620987868
N       -1.8341965372    0.2194639798    0.0162643438
C        0.5075256618   -0.4606378173   -0.1479116259
C       -0.5597353181    0.3082936037    0.6588335828
C       -0.6802410971   -0.2549434145    2.0836246382
N       -0.3428630232    0.3762598120    3.1062804704
C        0.8100269465   -0.0551603357   -1.5609279191
C        1.7194761521    0.2459249422   -0.6881494409
H        0.5638267645   -1.5179864138    0.1308647752
H       -0.2856796877    1.3655590870    0.7234443985
H       -1.0745801252   -1.2808903396    2.1557894457
H        0.4401649097   -0.0642157762   -2.5744112436
H        2.6803225783    0.6710021907   -0.4393423749
13   
Iteration 174 Energy -340.92463258
C       -2.8567886010    0.1366626135   -0.5635982524
N       -1.8329775019    0.2209469906    0.0157957575
C        0.5085441567   -0.4603758867   -0.1468811561
C       -0.5589598259    0.3085688179    0.6595419110
C       -0.6811491548   -0.2560810218    2.0838114018
N       -0.3441432591    0.3739860211    3.1072496265
C        0.8092527976   -0.0565789237   -1.5607329062
C        1.7189173490    0.2470943622   -0.6893288753
H        0.5664965016   -1.5174188826    0.1331655590
H       -0.2848261489    1.3658813103    0.7251171988
H       -1.0764534068   -1.2818170256    2.1548778207
H        0.4382841249   -0.0679972810   -2.5746979799
H        2.6793772726    0.6737768184   -0.4420598418
13   
Iteration 173 Energy -340.92462025
C       -2.8560084519    0.1380798940   -0.5641384424
N       -1.8324291522    0.2217022825    0.0155423122
C        0.5089017072   -0.4603461912   -0.1464124907
C       -0.5582562105    0.3089948559    0.6597108608
C       -0.6813528958   -0.2569485954    2.0839518932
N       -0.3444960631    0.3726548873    3.1075684511
C        0.8088529669   -0.0569208688   -1.5609195736
C        1.7183243606    0.2477318810   -0.6902677511
H        0.5676865054   -1.5170226223    0.1331470229
H       -0.2853677706    1.3662435480    0.7252288588
H       -1.0774310379   -1.2821249365    2.1549670956
H        0.4384217745   -0.0701677545   -2.5726101122
H        2.6787285713    0.6747715324   -0.4435078608
13   
Iteration 172 Energy -340.92461065
C       -2.8548075698    0.1399050747   -0.5655868513
N       -1.8316438413    0.2227867226    0.0151320037
C        0.5097791765   -0.4600873920   -0.1458683550
C       -0.5582855542    0.3086259305    0.6603528914
C       -0.6822784807   -0.2573152806    2.0838084353
N       -0.3457231578    0.3713210639    3.1083037178
C        0.8081144084   -0.0585670328   -1.5608750967
C        1.7183734875    0.2483266099   -0.6910944677
H        0.5700733409   -1.5162956625    0.1364911861
H       -0.2832531186    1.3655148192    0.7277407315
H       -1.0788578691   -1.2826233331    2.1532757048
H        0.4358359902   -0.0723397421   -2.5738471648
H        2.6782474916    0.6773961347   -0.4455724716
13   
Iteration 171 Energy -340.92459984
C       -2.8538203367    0.1415045653   -0.5665206829
N       -1.8309510867    0.2236775107    0.0148181085
C        0.5103668340   -0.4599418451   -0.1453257533
C       -0.5579075554    0.3087230643    0.6607558213