13   
Iteration 12 Energy -340.92655276
C       -2.1795044783    1.2890789383   -0.9071746217
N       -1.3451813333    0.9332434377   -0.1534580191
C        0.9082687478   -0.0605375152   -0.1115492057
C       -0.3097490530    0.4548962458    0.6941674987
C       -0.8527673699   -0.6765553081    1.5832868184
N       -0.6236608558   -0.7516944027    2.8082187819
C        0.7728807743   -0.7523829847   -1.4352156562
C        1.2374577705    0.4574606275   -1.4795363053
H        1.7068227728   -0.3467587703    0.5807944866
H        0.0143126435    1.2724982919    1.3470030967
H       -1.4303031300   -1.4546376067    1.0609138721
H        0.4856752655   -1.6607326378   -1.9433093846
H        1.6157482465    1.2961216843   -2.0441413620
