13   
Iteration 0 Energy -340.92655397
C       -2.1795044783    1.2890789383   -0.9071746217
N       -1.3451813333    0.9332434377   -0.1534580191
C        0.9082687478   -0.0605375152   -0.1115492057
C       -0.3097490530    0.4548962458    0.6941674987
C       -0.8527673699   -0.6765553081    1.5832868184
N       -0.6236608558   -0.7516944027    2.8082187819
C        0.7728807743   -0.7523829847   -1.4352156562
C        1.2374577705    0.4574606275   -1.4795363053
H        1.7068227728   -0.3467587703    0.5807944866
H        0.0143126435    1.2724982919    1.3470030967
H       -1.4303031300   -1.4546376067    1.0609138721
H        0.4856752655   -1.6607326378   -1.9433093846
H        1.6157482465    1.2961216843   -2.0441413620
13   
Iteration 1 Energy -340.92655399
C       -2.1792726370    1.2896367629   -0.9075770506
N       -1.3451046166    0.9336024360   -0.1537837552
C        0.9082274751   -0.0604024053   -0.1114253993
C       -0.3098748730    0.4551812013    0.6940481632
C       -0.8532036573   -0.6761723110    1.5830570165
N       -0.6239635452   -0.7505640909    2.8080036195
C        0.7729260763   -0.7525302509   -1.4349477251
C        1.2374872168    0.4573134627   -1.4795008597
H        1.7067449124   -0.3464624035    0.5810289363
H        0.0141581680    1.2727883225    1.3468971982
H       -1.4306765788   -1.4544642732    1.0608941439
H        0.4857667187   -1.6609784541   -1.9428918183
H        1.6157982676    1.2958487630   -2.0442787085
