13   
IRC reactant Energy -340.92501872
C       -2.4684853993    1.4618436856    0.5612082391
N       -1.3247181710    1.9522046588    0.3807445573
C        0.5840005804    0.5160874372   -0.3666556237
C       -0.4186827756    0.8225199134    0.7485698464
C       -1.4021442612   -0.2672163915    1.1142518379
N       -2.6311232190    0.1186102990    1.0088175619
C        1.1452715978   -0.8634462431   -0.5987796741
C        0.2869465079   -0.4524417594   -1.4795564266
H        1.2048978750    1.3918653505   -0.5769475999
H        0.1319268724    1.1346495835    1.6502656377
H       -1.1450675541   -1.2715225167    1.4445626168
H        1.8312599164   -1.6180430490   -0.2423926884
H       -0.2674543986   -0.6113536580   -2.3923523332
