13   
Iteration 0 Energy -340.92501872
C       -2.4684853993    1.4618436856    0.5612082391
N       -1.3247181710    1.9522046588    0.3807445573
C        0.5840005804    0.5160874372   -0.3666556237
C       -0.4186827756    0.8225199134    0.7485698464
C       -1.4021442612   -0.2672163915    1.1142518379
N       -2.6311232190    0.1186102990    1.0088175619
C        1.1452715978   -0.8634462431   -0.5987796741
C        0.2869465079   -0.4524417594   -1.4795564266
H        1.2048978750    1.3918653505   -0.5769475999
H        0.1319268724    1.1346495835    1.6502656377
H       -1.1450675541   -1.2715225167    1.4445626168
H        1.8312599164   -1.6180430490   -0.2423926884
H       -0.2674543986   -0.6113536580   -2.3923523332
13   
Iteration 1 Energy -340.92501873
C       -2.4689954079    1.4605027254    0.5603555232
N       -1.3254503603    1.9514792763    0.3802319362
C        0.5838829606    0.5162522712   -0.3666245812
C       -0.4190036309    0.8222724495    0.7484630737
C       -1.4019050946   -0.2680471864    1.1138875653
N       -2.6310153379    0.1171470679    1.0078075654
C        1.1452124672   -0.8632437495   -0.5987836032
C        0.2868959542   -0.4522211229   -1.4795717099
H        1.2046438044    1.3921425285   -0.5768565326
H        0.1312615803    1.1346249420    1.6502903431
H       -1.1443819727   -1.2722143563    1.4442614788
H        1.8311886409   -1.6178480890   -0.2423872845
H       -0.2674991756   -0.6110930140   -2.3923773083
