13   
Climbing Image - Chain 29 Image 5 Energy  -340.9655031948 (+5.737 kcal/mol) RMSGrad 0.042 eV/Ang
C       -1.4540300324   -1.4531586997   -0.0945200770
N       -2.0753254618   -1.5342262557   -1.0852676740
C        0.3727498366    1.3060847653   -0.0673411247
C        0.1416624455    0.7848468007    1.1664500924
C       -0.1498746753   -0.5677922653    1.6090681939
N       -0.8173313634   -1.5386091026    1.0670713759
C        0.8479520064   -0.5668450466   -1.6559928193
C        0.5533371954    0.6839669240   -1.3828301187
H        0.5096614519    2.3867635052   -0.0931414829
H        0.2400736570    1.4805966023    2.0001303255
H        0.2163082798   -0.8007364018    2.6114782101
H        1.1405177725   -1.5742396668   -1.8594451440
H        0.4744269189    1.3964570599   -2.2140155821
