13   
Iteration 0 Energy -340.96550319
C       -1.4540300324   -1.4531586997   -0.0945200770
N       -2.0753254618   -1.5342262557   -1.0852676740
C        0.3727498366    1.3060847653   -0.0673411247
C        0.1416624455    0.7848468007    1.1664500924
C       -0.1498746753   -0.5677922653    1.6090681939
N       -0.8173313634   -1.5386091026    1.0670713759
C        0.8479520064   -0.5668450466   -1.6559928193
C        0.5533371954    0.6839669240   -1.3828301187
H        0.5096614519    2.3867635052   -0.0931414829
H        0.2400736570    1.4805966023    2.0001303255
H        0.2163082798   -0.8007364018    2.6114782101
H        1.1405177725   -1.5742396668   -1.8594451440
H        0.4744269189    1.3964570599   -2.2140155821
13   
Iteration 1 Energy -340.96558472
C       -1.4471860142   -1.4595585899   -0.0976790745
N       -2.0628006676   -1.5445510792   -1.0912688909
C        0.3755210148    1.3101548908   -0.0673937651
C        0.1423060083    0.7855433555    1.1646181352
C       -0.1503711726   -0.5667311364    1.6072033639
N       -0.8148370530   -1.5400398385    1.0666571632
C        0.8380178603   -0.5656616797   -1.6511897652
C        0.5533285635    0.6881426395   -1.3824724012
H        0.5159664726    2.3906998782   -0.0899155841
H        0.2401836676    1.4795639213    1.9994210803
H        0.2136372974   -0.7971817816    2.6112736791
H        1.1166011908   -1.5770601117   -1.8527360841
H        0.4795695438    1.4007688076   -2.2146888459
13   
Iteration 2 Energy -340.96567971
C       -1.4369068787   -1.4691429643   -0.0999041133
N       -2.0439629556   -1.5610564912   -1.0981295194
C        0.3796120340    1.3131602946   -0.0670512639
C        0.1422398922    0.7868486484    1.1637564494
C       -0.1523954800   -0.5641731757    1.6080817740
N       -0.8122104628   -1.5414139243    1.0689272891
C        0.8245894547   -0.5636093650   -1.6525231564
C        0.5547636486    0.6932786322   -1.3827809866
H        0.5252826866    2.3932346493   -0.0854907182
H        0.2388772344    1.4803010658    1.9989422388
H        0.2068731223   -0.7899049418    2.6151348830
H        1.0830265652   -1.5801506093   -1.8539421668
H        0.4897833874    1.4087459885   -2.2136839847
13   
Iteration 3 Energy -340.96579904
C       -1.4215532902   -1.4825907081   -0.1019768751
N       -2.0176664023   -1.5848181414   -1.1059441729
C        0.3848806906    1.3155833411   -0.0661507397
C        0.1410977147    0.7890459398    1.1638708570
C       -0.1556992799   -0.5600140980    1.6113258909
N       -0.8078129290   -1.5430499482    1.0728800778
C        0.8051042525   -0.5608911701   -1.6587380335
C        0.5575524559    0.6995832507   -1.3832357157
H        0.5376890425    2.3947931317   -0.0800205635
H        0.2357212562    1.4831062946    1.9986597838
H        0.1954149623   -0.7787083903    2.6228882954
H        1.0361179397   -1.5832915233   -1.8631595611
H        0.5079385345    1.4204675971   -2.2106480744
13   
Iteration 4 Energy -340.96595668
C       -1.3993899471   -1.5016567057   -0.1040345625
N       -1.9844685989   -1.6176300385   -1.1132795336
C        0.3905345399    1.3179665627   -0.0649945464
C        0.1376771631    0.7921864450    1.1644425771
C       -0.1598811893   -0.5543816564    1.6163337265
N       -0.7983422799   -1.5465004654    1.0773186804
C        0.7753154164   -0.5571021957   -1.6697665418
C        0.5625690073    0.7079218295   -1.3837855167
H        0.5517429877    2.3959993445   -0.0737759230
H        0.2295000508    1.4880960652    1.9979042526
H        0.1784589805   -0.7629756250    2.6343649470
H        0.9697680857   -1.5856909756   -1.8805698659
H        0.5427279248    1.4372172178   -2.2050404540
13   
Iteration 5 Energy -340.96612314
C       -1.3780274406   -1.5198140504   -0.1039961930
N       -1.9606488146   -1.6444112749   -1.1139362298
C        0.3907938365    1.3190431368   -0.0650385186
C        0.1303419097    0.7943997583    1.1644368521
C       -0.1617134252   -0.5506254351    1.6208803144
N       -0.7819874393   -1.5536433810    1.0795977798
C        0.7432487253   -0.5538055179   -1.6828095870
C        0.5705247970    0.7151741008   -1.3843675643
H        0.5538533971    2.3967635649   -0.0701783788
H        0.2182915416    1.4933088946    1.9957089776
H        0.1646276635   -0.7490523030    2.6448003757
H        0.9023482486   -1.5868899586   -1.9005987752
H        0.5963380162    1.4532958714   -2.1974490527
13   
Iteration 6 Energy -340.96626954
C       -1.3687787959   -1.5264533513   -0.1001849215
N       -1.9647985312   -1.6446619760   -1.1031797816
C        0.3775020541    1.3194335804   -0.0675451784
C        0.1151860792    0.7953428418    1.1627077188
C       -0.1563375252   -0.5520116511    1.6212953339
N       -0.7593602785   -1.5642999404    1.0765346125
C        0.7177847505   -0.5539598672   -1.6917319101
C        0.5849683653    0.7181246444   -1.3830847763
H        0.5245975659    2.3992987710   -0.0731852099
H        0.1910526683    1.4986213309    1.9914507526
H        0.1709936234   -0.7458292079    2.6457442277
H        0.8442642255   -1.5905156003   -1.9137819480
H        0.6748833955    1.4618049316   -2.1863608712
13   
Iteration 7 Energy -340.96631097
C       -1.4564737968   -1.4169576748   -0.1199549143
N       -2.0605236063   -1.4975424826   -1.1217145813
C        0.3607157606    1.3721417152   -0.0547876700
C        0.0666439892    0.8485144313    1.1682959441
C       -0.2215103359   -0.4999670223    1.6126763125
N       -0.8415041015   -1.4937372638    1.0529647322
C        0.6744038233   -0.5056601966   -1.6830145635
C        0.6026762954    0.7688565746   -1.3638590017
H        0.5168778465    2.4505777197   -0.0558448235
H        0.1300058599    1.5483898979    2.0010143947
H        0.1050288796   -0.7133411547    2.6335508597
H        0.7457578571   -1.5462845146   -1.9102572550
H        0.7774400940    1.5129866438   -2.1526145063
13   
Iteration 8 Energy -340.96625518
C       -2.2469588459    0.0214382700   -0.1087289223
N       -2.7293684020    0.2608131614   -1.1499246760
C        0.5601241482    1.7510291893    0.3627749820
C       -0.0510330292    1.3262459772    1.5033052322
C       -0.9285688833    0.2087064714    1.7880419392
N       -1.8477210192   -0.3843331464    1.0902890762
C        0.1810437488    0.0583417119   -1.4465250059
C        0.6548325507    1.1954696013   -0.9874256665
H        1.1676840986    2.6472091197    0.4872722775
H        0.2196571460    1.8728423753    2.4060951431
H       -0.8308712012   -0.1879759140    2.8017759805
H       -0.2183109954   -0.8678156431   -1.7963065974
H        1.2362598930    1.8314793387   -1.6695284814
13   
Iteration 9 Energy -340.96629801
C       -1.8932769732   -0.7150077105   -0.1482321721
N       -2.4461439426   -0.6388806437   -1.1792628832
C        0.4611497563    1.6253852624    0.1235893474
C       -0.0015012536    1.1360309038    1.3076448026
C       -0.5924333994   -0.1336375269    1.6796843957
N       -1.3752814572   -0.9548352381    1.0496392098
C        0.4386410625   -0.2131492558   -1.5785750142
C        0.6379603104    1.0306745987   -1.2006821656
H        0.8476251522    2.6428405581    0.1789742373
H        0.1648389294    1.7778241741    2.1722805892
H       -0.3754078483   -0.4432996215    2.7050879082
H        0.2742799784   -1.2298547997   -1.8594954459
H        1.0218065779    1.7452092346   -1.9418229093
13   
Iteration 10 Energy -340.96630894
C       -1.6333319014   -1.1381768322   -0.1575642320
N       -2.2135316694   -1.1641486723   -1.1760915754
C        0.3912360114    1.5026122207   -0.0075744368
C        0.0261528934    0.9894496527    1.2004550479
C       -0.3794296277   -0.3370055255    1.6193489598
N       -1.0599101706   -1.2727959727    1.0312288956
C        0.5883559609   -0.3732272292   -1.6562041930
C        0.6163597933    0.8981257275   -1.3195735450
H        0.6352433446    2.5645400019    0.0108167051
H        0.1238844577    1.6720223516    2.0441206181
H       -0.0986043586   -0.5861940236    2.6457065179
H        0.5706137761   -1.4120523790   -1.9014867553
H        0.8737716774    1.6357020218   -2.0919121661
13   
Iteration 11 Energy -340.96631140
C       -1.4657682482   -1.3984060557   -0.1290507408
N       -2.0650249092   -1.4791270851   -1.1336416160
C        0.3620553670    1.3851450259   -0.0544455164
C        0.0621431730    0.8617125299    1.1671661222
C       -0.2340836068   -0.4859509974    1.6091777854
N       -0.8567283908   -1.4764330935    1.0468841624
C        0.6677410110   -0.4931107045   -1.6833783325
C        0.6034874248    0.7814979875   -1.3636635027
H        0.5250316486    2.4626181422   -0.0539479848
H        0.1267675915    1.5601944522    2.0009767315
H        0.0878276171   -0.7015199713    2.6310435569
H        0.7295466798   -1.5336348329   -1.9138996441
H        0.7843655570    1.5253466242   -2.1513733903
13   
Iteration 12 Energy -340.96631151
C       -1.4678464938   -1.3973695025   -0.1283484897
N       -2.0686319188   -1.4773861655   -1.1320693874
C        0.3619130907    1.3850559179   -0.0545722158
C        0.0618387818    0.8616922557    1.1670068915
C       -0.2343282150   -0.4860026814    1.6090544484
N       -0.8575779129   -1.4761725115    1.0469359492
C        0.6696227681   -0.4929459169   -1.6837745449
C        0.6041960259    0.7815097169   -1.3637099164
H        0.5244780970    2.4625898912   -0.0541443224
H        0.1262187801    1.5602704347    2.0007662433
H        0.0880183392   -0.7017757677    2.6307377572
H        0.7332309713   -1.5330944981   -1.9154766022
H        0.7850332133    1.5256175806   -2.1511987369
13   
Iteration 13 Energy -340.96631157
C       -1.4673937630   -1.3976354261   -0.1286740925
N       -2.0679676019   -1.4777427723   -1.1325137587
C        0.3619357979    1.3850289828   -0.0545084288
C        0.0619247931    0.8615575364    1.1670302732
C       -0.2340049822   -0.4862788705    1.6088530446
N       -0.8571885333   -1.4764355255    1.0466442821
C        0.6690026524   -0.4932486203   -1.6832789639
C        0.6040484660    0.7813279725   -1.3636075549
H        0.5245316051    2.4625560348   -0.0540913048
H        0.1261847420    1.5600251114    2.0008908906
H        0.0885382026   -0.7022152302    2.6304404447
H        0.7324920599   -1.5334977702   -1.9145940884
H        0.7849562754    1.5252179477   -2.1512738596
