13   
Iteration 268 Energy -340.94997205
C       -2.1934771490    1.3316417989   -0.8726885182
N       -1.3481727795    0.9591718276   -0.1433533243
C        0.9122946814   -0.0295428553   -0.1054983232
C       -0.3067473513    0.4832162984    0.7008163538
C       -0.8467265071   -0.6474915696    1.5928331080
N       -0.6142499312   -0.7177563016    2.8178090037
C        0.7827232121   -0.7171433555   -1.4336845040
C        1.2472975407    0.4947368292   -1.4712047016
H        1.7096965994   -0.3171229342    0.5861165490
H        0.0155843070    1.3046312492    1.3492330985
H       -1.4290599751   -1.4290930327    1.0810078689
H        0.4996959001   -1.6225199748   -1.9477088441
H        1.6273343222    1.3343421989   -2.0318304272
13   
Iteration 285 Energy -340.95042453
C       -3.0162798065   -0.3303223119   -0.3790110074
N       -1.9289240740   -0.0219134296   -0.0504049697
C        0.4370241452   -0.4088886006   -0.5237136413
C       -0.5990907106    0.3251123987    0.3430442048
C       -0.4047485221   -0.0351947681    1.8259604794
N        0.0463967709    0.7694493408    2.6676006534
C        0.9914063598    0.2303423584   -1.7676007505
C        1.7977875247    0.1886216151   -0.7512287686
H        0.3157117090   -1.4955987133   -0.4785135573
H       -0.4724063235    1.4057683371    0.2301154409
H       -0.6593328464   -1.0681468071    2.1103969523
H        0.7861557519    0.4846189249   -2.7957604530
H        2.7624928911    0.3832218339   -0.3090372436
