13   
Iteration 127 Energy -340.99824280
C       -2.4915280162   -0.7472028129    1.6904773956
N       -3.4310904964   -0.2012685005    2.1392001850
C        0.7008643829    0.9743889230   -0.6554619376
C       -0.3944485491    0.4059985714    0.1414180219
C       -0.5032990921   -0.9314253685    0.5202865471
N       -1.4847828281   -1.4783404969    1.2453462418
C        2.1156880094    0.3892291186   -0.6046925914
C        1.4621101307    0.1339045658   -1.6856013019
H        0.5980454255    2.0432906417   -0.8462169871
H       -1.1809393729    1.0889998479    0.4587880071
H        0.2669577611   -1.6366815609    0.2163926550
H        2.9826465366    0.2977274122    0.0314182210
H        1.3594521278   -0.3370750297   -2.6511149587
13   
Frame  77 IRC: Energy =  -340.9899400000 ; +1.5487 kcal/mol
C       -1.7104945160   -1.3578085495    0.0043123850
N       -2.3923983013   -1.4246920494   -0.9545742402
C        0.5797640439    1.0528976902   -0.3278284351
C        0.3969720968    0.6052561940    1.0590691946
C       -0.2222072361   -0.5148371407    1.6310880913
N       -1.0777993905   -1.4160891928    1.1503334954
C        1.2820941780    0.1335872859   -1.3524388714
C        0.0354360974    0.3675991310   -1.5728108013
H        0.8125538636    2.1186256031   -0.3889952542
H        0.9058973718    1.2324502704    1.7913218877
H        0.0273410101   -0.6970058477    2.6761143123
H        2.2321246742   -0.3259422762   -1.5733014944
H       -0.8692838918    0.2259588816   -2.1422902698
