13   
Iteration 7 Energy -340.97576514
C       -2.4869510745   -0.7565357175    1.6880061712
N       -3.4273864733   -0.2082102532    2.1310356940
C        0.7012211577    0.9733343874   -0.6549323858
C       -0.3934304628    0.4037814537    0.1437695457
C       -0.4994675830   -0.9326021357    0.5214996480
N       -1.4770905568   -1.4855146986    1.2451909685
C        2.1138619713    0.3903973927   -0.6060759658
C        1.4591992637    0.1358060712   -1.6852257854
H        0.5953376377    2.0434784821   -0.8431110499
H       -1.1820247086    1.0831016487    0.4637216171
H        0.2753452687   -1.6326526667    0.2147266695
H        2.9827339889    0.2972107091    0.0281473618
H        1.3570649494   -0.3354873739   -2.6513146483
13   
Iteration 9 Energy -340.96809844
C       -1.6735910969   -1.3939113728   -0.0097662974
N       -2.2935463949   -1.5270422009   -1.0032819130
C        0.6011567332    1.0515035168   -0.3210428080
C        0.4184868509    0.5984154018    1.0655413249
C       -0.2468238511   -0.4879828539    1.6461016155
N       -1.1088234064   -1.3846616597    1.1714981184
C        1.2520364671    0.1322467733   -1.3700552496
C        0.0099469455    0.4061075498   -1.5643907740
H        0.8644914940    2.1123204092   -0.3670472082
H        0.9606273739    1.2019604146    1.7938765789
H       -0.0339392485   -0.6420685607    2.7040412661
H        2.1819992238   -0.3542180615   -1.6188769001
H       -0.9072548521    0.2989964050   -2.1210333806
