13   
IRC reactant Energy -340.96809862
C       -1.6663647582   -1.2130326226    0.1826116262
N       -2.2657469070   -1.3967970075   -0.8154377874
C        0.7769369193    1.0349490248   -0.2766805106
C        0.5249687082    0.7297372299    1.1394283497
C       -0.2278309143   -0.2512416290    1.7955155748
N       -1.1355714711   -1.1306259935    1.3767756810
C        1.4138307110   -0.0160641158   -1.2036162322
C        0.1958768004    0.2996455073   -1.4734371798
H        1.0994197450    2.0711935125   -0.4150008942
H        1.0858527109    1.3642590664    1.8261881054
H       -0.0555777625   -0.3179368680    2.8698442393
H        2.3243233689   -0.5708540682   -1.3666861001
H       -0.7058612720    0.1843173499   -2.0532575690
13   
IRC product Energy -340.97576452
C       -2.3431287831   -0.5757044694    1.9147269256
N       -3.2312945937    0.0182796866    2.4043571408
C        0.8324549298    1.0046714541   -0.5475321531
C       -0.2553124874    0.4868775264    0.2944910248
C       -0.4213642665   -0.8469684045    0.6595633140
N       -1.3963520952   -1.3540252036    1.4196059847
C        2.2049865354    0.3324191737   -0.5848322967
C        1.4811047988    0.1449264066   -1.6331219151
H        0.7859551377    2.0833632553   -0.7090498329
H       -0.9872956360    1.2056096339    0.6598558725
H        0.2975563090   -1.5854415731    0.3095657152
H        3.0975209722    0.1693321419    0.0005363160
H        1.2994250576   -0.2957902417   -2.6019187924
