13   
Iteration 2 Energy -340.96809783
C       -1.6642835882   -1.2119475812    0.1810034383
N       -2.2623559561   -1.3953911963   -0.8178918922
C        0.7766150852    1.0347754761   -0.2762624331
C        0.5254003893    0.7302299197    1.1401000351
C       -0.2275288910   -0.2508708690    1.7958334292
N       -1.1349082871   -1.1300229822    1.3758376759
C        1.4126109785   -0.0168366603   -1.2031658496
C        0.1945429510    0.2990208963   -1.4722698371
H        1.0992199255    2.0708812784   -0.4152503974
H        1.0864488797    1.3647339051    1.8266759834
H       -0.0557393531   -0.3180223591    2.8702028775
H        2.3228509460   -0.5719279214   -1.3666100873
H       -0.7076298804    0.1835886414   -2.0514259690
13   
Iteration 1 Energy -340.96809639
C       -1.6620947726   -1.2121255277    0.1797842373
N       -2.2582572423   -1.3965169424   -0.8200778930
C        0.7768706184    1.0348317428   -0.2758429629
C        0.5258554006    0.7305848798    1.1406149415
C       -0.2277847370   -0.2500765254    1.7961858246
N       -1.1349109292   -1.1291672412    1.3755164939
C        1.4111285583   -0.0175500557   -1.2030707462
C        0.1932211045    0.2995831856   -1.4713970158
H        1.1004775391    2.0705906781   -0.4150698100
H        1.0873933756    1.3646974168    1.8271404454
H       -0.0566098030   -0.3171958929    2.8706544735
H        2.3206519873   -0.5736592790   -1.3670408391
H       -0.7094544686    0.1850467755   -2.0499531089
13   
Iteration 0 Energy -340.96809862
C       -1.6663647582   -1.2130326226    0.1826116262
N       -2.2657469070   -1.3967970075   -0.8154377874
C        0.7769369193    1.0349490248   -0.2766805106
C        0.5249687082    0.7297372299    1.1394283497
C       -0.2278309143   -0.2512416290    1.7955155748
N       -1.1355714711   -1.1306259935    1.3767756810
C        1.4138307110   -0.0160641158   -1.2036162322
C        0.1958768004    0.2996455073   -1.4734371798
H        1.0994197450    2.0711935125   -0.4150008942
H        1.0858527109    1.3642590664    1.8261881054
H       -0.0555777625   -0.3179368680    2.8698442393
H        2.3243233689   -0.5708540682   -1.3666861001
H       -0.7058612720    0.1843173499   -2.0532575690
13   
Iteration 76 Energy -340.96809766
C       -1.6688370301   -1.2091298154    0.1825892108
N       -2.2695710103   -1.3900221704   -0.8151783217
C        0.7753536000    1.0346952296   -0.2769591969
C        0.5253612715    0.7291520248    1.1393774843
C       -0.2272531984   -0.2520875101    1.7952427270
N       -1.1364153419   -1.1299469749    1.3762930021
C        1.4162019930   -0.0148703579   -1.2030145219
C        0.1969609126    0.2958532020   -1.4728624378
H        1.0941303695    2.0719453783   -0.4161531797
H        1.0868700568    1.3631129528    1.8259819570
H       -0.0530144793   -0.3209356601    2.8691017731
H        2.3288219797   -0.5662861646   -1.3656281324
H       -0.7043532443    0.1760692522   -2.0525430605
13   
Iteration 75 Energy -340.96809602
C       -1.6743144423   -1.2059968766    0.1850608149
N       -2.2778048961   -1.3845974223   -0.8114398211
C        0.7737645954    1.0338653791   -0.2778261208
C        0.5251597079    0.7274173128    1.1387689197
C       -0.2269720512   -0.2536217733    1.7954148758
N       -1.1385894822   -1.1293157050    1.3774205055
C        1.4207565383   -0.0124449004   -1.2032414133
C        0.2002407060    0.2925027572   -1.4741638759
H        1.0878933659    2.0726208080   -0.4167129512
H        1.0884710101    1.3607368108    1.8245674143
H       -0.0509621224   -0.3237791045    2.8689201369
H        2.3363243826   -0.5590930675   -1.3653226814
H       -0.6997114334    0.1692551679   -2.0551985000
13   
Iteration 74 Energy -340.96809233
C       -1.6791550440   -1.1990264904    0.1853093008
N       -2.2864646499   -1.3709314507   -0.8100712848
C        0.7705773527    1.0338207474   -0.2788459390
C        0.5252999352    0.7262960721    1.1382399443
C       -0.2256826125   -0.2557129594    1.7944739007
N       -1.1395755052   -1.1292217161    1.3763817273
C        1.4256756768   -0.0099743025   -1.2014563588
C        0.2029073314    0.2853533773   -1.4733242352
H        1.0775610290    2.0744881177   -0.4196154712
H        1.0908414365    1.3580391733    1.8237835371
H       -0.0464448288   -0.3291333780    2.8672074745
H        2.3451842638   -0.5503615665   -1.3623261494
H       -0.6964685064    0.1539137621   -2.0535091430
13   
Iteration 73 Energy -340.96808546
C       -1.6872319437   -1.1911944369    0.1876784200
N       -2.2986427574   -1.3572732036   -0.8061699515
C        0.7671015777    1.0325078704   -0.2800098209
C        0.5258308468    0.7236961604    1.1375413936
C       -0.2246879538   -0.2581956242    1.7943482419
N       -1.1427667994   -1.1276350011    1.3769370084
C        1.4328322181   -0.0060813413   -1.2010707011
C        0.2074413969    0.2775230386   -1.4738702716
H        1.0648509686    2.0757778549   -0.4214897486
H        1.0935465366    1.3543709469    1.8222296269
H       -0.0415889229   -0.3354086735    2.8661675161
H        2.3575472068   -0.5377995912   -1.3609347736
H       -0.6899764957    0.1372613871   -2.0551096364
13   
Iteration 72 Energy -340.96807478
C       -1.6953733996   -1.1825449084    0.1896552871
N       -2.3116164738   -1.3412560513   -0.8024222714
C        0.7630963468    1.0316928534   -0.2815147656
C        0.5259322906    0.7213244780    1.1367513529
C       -0.2236203987   -0.2609651628    1.7936536322
N       -1.1456133589   -1.1267163754    1.3768529675
C        1.4403657073   -0.0019259383   -1.1997021714
C        0.2121373797    0.2684774236   -1.4737612542
H        1.0509038314    2.0775974517   -0.4245905368
H        1.0975271590    1.3496215583    1.8204399697
H       -0.0365283009   -0.3419786754    2.8645065979
H        2.3706833725   -0.5241228054   -1.3585062879
H       -0.6836382768    0.1183455382   -2.0551152166
13   
Iteration 71 Energy -340.96806087
C       -1.7037854661   -1.1733945607    0.1917568126
N       -2.3244559226   -1.3252230273   -0.7986328331
C        0.7592286568    1.0302228796   -0.2828535275
C        0.5268020900    0.7183939167    1.1359228745
C       -0.2224708302   -0.2637289303    1.7933431780
N       -1.1490920608   -1.1248685963    1.3770780079
C        1.4481347869    0.0025012526   -1.1991509015
C        0.2170840744    0.2594370693   -1.4738561419
H        1.0363669442    2.0788873368   -0.4270065188
H        1.1006650491    1.3455805690    1.8189016059
H       -0.0313639931   -0.3490012292    2.8631346378
H        2.3839536897   -0.5100685478   -1.3570055702
H       -0.6768111398    0.0988112539   -2.0553843205
13   
Iteration 70 Energy -340.96804496
C       -1.7116783564   -1.1652880262    0.1939991873
N       -2.3363470659   -1.3105792215   -0.7948635457
C        0.7554728962    1.0291512071   -0.2842012962
C        0.5269799535    0.7159476599    1.1352891439
C       -0.2217779102   -0.2661419827    1.7927863188
N       -1.1522960693   -1.1236007817    1.3773324282
C        1.4551933594    0.0066641074   -1.1980601878
C        0.2216491272    0.2508386669   -1.4737726692
H        1.0230139034    2.0801691183   -0.4298114848
H        1.1049621009    1.3404139146    1.8170828659
H       -0.0269618359   -0.3548596998    2.8616565126
H        2.3962934610   -0.4963561963   -1.3553011915
H       -0.6702476852    0.0811906204   -2.0558887784
13   
Iteration 69 Energy -340.96802683
C       -1.7190902579   -1.1567532261    0.1957018357
N       -2.3476473081   -1.2959854953   -0.7915639831
C        0.7520967780    1.0275986419   -0.2855133974
C        0.5280248241    0.7129953167    1.1344536667
C       -0.2208105754   -0.2686743493    1.7926024688
N       -1.1557317480   -1.1215893584    1.3775077970
C        1.4623119874    0.0109292642   -1.1978464516
C        0.2262904808    0.2425841387   -1.4736788945
H        1.0096209575    2.0810300955   -0.4320057114
H        1.1079503836    1.3367567246    1.8156755814
H       -0.0228440768   -0.3611752862    2.8605311397
H        2.4082076907   -0.4832079912   -1.3544858630
H       -0.6641232574    0.0630409113   -2.0551308851
13   
Iteration 68 Energy -340.96800674
C       -1.7267314702   -1.1490948275    0.1981373874
N       -2.3585906204   -1.2822914658   -0.7878566548
C        0.7485185194    1.0263931579   -0.2866551884
C        0.5283273079    0.7106023321    1.1339570883
C       -0.2204099499   -0.2707562755    1.7920601857
N       -1.1591141099   -1.1201384090    1.3779572795
C        1.4688462396    0.0150264496   -1.1968355838
C        0.2306794865    0.2343397441   -1.4735893008
H        0.9966949324    2.0819204469   -0.4345957549
H        1.1124002241    1.3313055464    1.8139699164
H       -0.0187053839   -0.3664767581    2.8590385549
H        2.4196781242   -0.4696802532   -1.3531539297
H       -0.6573374212    0.0463996984   -2.0561866966
13   
Iteration 67 Energy -340.96798272
C       -1.7341864891   -1.1401577982    0.1997702243
N       -2.3699087252   -1.2673213338   -0.7845372768
C        0.7451301584    1.0245770413   -0.2881595551
C        0.5294750240    0.7072494664    1.1330607625
C       -0.2195542941   -0.2733407400    1.7919938609
N       -1.1629339122   -1.1177630305    1.3782151622
C        1.4762704384    0.0196918398   -1.1968540079
C        0.2356222521    0.2257068894   -1.4732998844
H        0.9827398659    2.0824771641   -0.4369380432
H        1.1159876757    1.3271418309    1.8123145424
H       -0.0152953522   -0.3727547251    2.8581226424
H        2.4319633961   -0.4554324446   -1.3529268655
H       -0.6510541593    0.0274752266   -2.0545142584
13   
Iteration 66 Energy -340.96795316
C       -1.7431066403   -1.1308343706    0.2026195862
N       -2.3823663488   -1.2510656095   -0.7802640595
C        0.7410027638    1.0228221013   -0.2893765728
C        0.5302981071    0.7041975170    1.1324827944
C       -0.2191918512   -0.2757276411    1.7914569152
N       -1.1672663967   -1.1155967903    1.3787669357
C        1.4838724750    0.0247364836   -1.1959559191
C        0.2409072168    0.2159193600   -1.4731238139
H        0.9670730756    2.0830670454   -0.4397918218
H        1.1211040078    1.3208551828    1.8105359064
H       -0.0104741004   -0.3790308666    2.8563430576
H        2.4451049078   -0.4391874058   -1.3518674339
H       -0.6427013379    0.0073943801   -2.0555782711
13   
Iteration 65 Energy -340.96791720
C       -1.7520804401   -1.1201520311    0.2048319354
N       -2.3955994503   -1.2331380786   -0.7761357078
C        0.7368772236    1.0205045895   -0.2912175571
C        0.5314998619    0.7001123504    1.1315108522
C       -0.2184595633   -0.2786113482    1.7913239770
N       -1.1720264420   -1.1126726776    1.3792696895
C        1.4926162767    0.0305513725   -1.1958293161
C        0.2469688434    0.2053025969   -1.4725901716
H        0.9500807619    2.0833363108   -0.4428324219
H        1.1262793933    1.3148271443    1.8082234723
H       -0.0068897209   -0.3861693387    2.8552505751
H        2.4596205139   -0.4211656914   -1.3518545060
H       -0.6346313795   -0.0151758126   -2.0537035176
13   
Iteration 64 Energy -340.96787631
C       -1.7617219618   -1.1092327732    0.2077585534
N       -2.4090369889   -1.2145224418   -0.7715603657
C        0.7323760721    1.0181102355   -0.2925949599
C        0.5328329761    0.6963771175    1.1308133426
C       -0.2180533243   -0.2813630463    1.7908917127
N       -1.1770946678   -1.1097960145    1.3797762719
C        1.5010844912    0.0364843137   -1.1952082133
C        0.2530684076    0.1941674785   -1.4721786454
H        0.9320679946    2.0833720112   -0.4459455715
H        1.1318578069    1.3081430047    1.8064018722
H       -0.0019407101   -0.3932990172    2.8533938897
H        2.4739210390   -0.4025597617   -1.3513750052
H       -0.6251052561   -0.0383317201   -2.0539255782
13   
Iteration 63 Energy -340.96783121
C       -1.7708752109   -1.0980947844    0.2101949713
N       -2.4222769767   -1.1957331985   -0.7672055838
C        0.7280688811    1.0155624518   -0.2944279807
C        0.5339653906    0.6922419497    1.1299212843
C       -0.2174407369   -0.2841733959    1.7906612037
N       -1.1819434508   -1.1067695747    1.3803204104
C        1.5097846020    0.0426143493   -1.1948943246
C        0.2594372600    0.1829834257   -1.4714179798
H        0.9142303981    2.0831520312   -0.4492826433
H        1.1374981726    1.3014114890    1.8038181298
H        0.0016612471   -0.4005806018    2.8521327587
H        2.4883109544   -0.3834548070   -1.3514103955
H       -0.6161646521   -0.0616099480   -2.0521625471
13   
Iteration 62 Energy -340.96778311
C       -1.7799430010   -1.0870667487    0.2128733133
N       -2.4350803893   -1.1769151902   -0.7627721349
C        0.7236657905    1.0129332126   -0.2958528441
C        0.5353592495    0.6885188669    1.1291992983
C       -0.2169837609   -0.2869862192    1.7902640348
N       -1.1867627375   -1.1039058798    1.3805991576
C        1.5178917293    0.0485656499   -1.1943705924
C        0.2655574582    0.1718965401   -1.4707743862
H        0.8963089329    2.0826028528   -0.4524585706
H        1.1428222945    1.2952069912    1.8021115632
H        0.0062184005   -0.4076937931    2.8503137553
H        2.5017654054   -0.3649795303   -1.3512122924
H       -0.6065634935   -0.0846273659   -2.0516729986
13   
Iteration 61 Energy -340.96773176
C       -1.7885144545   -1.0761120768    0.2152166239
N       -2.4475620555   -1.1581689388   -0.7584706464
C        0.7194983805    1.0103611717   -0.2975358353
C        0.5363324605    0.6847187176    1.1284013486
C       -0.2163409361   -0.2896599668    1.7899056207
N       -1.1910741903   -1.1011532852    1.3809359324
C        1.5259222793    0.0544918867   -1.1938683780
C        0.2718127440    0.1609406068   -1.4698147881
H        0.8788497070    2.0819129757   -0.4559015474
H        1.1480132649    1.2887808985    1.7995015735
H        0.0098296469   -0.4149171629    2.8488807441
H        2.5149248345   -0.3464738608   -1.3510886132
H       -0.5974358026   -0.1071715795   -2.0499147315
13   
Iteration 60 Energy -340.96767776
C       -1.7968305073   -1.0653293519    0.2176404220
N       -2.4596982869   -1.1393881163   -0.7540925848
C        0.7152020599    1.0076923116   -0.2990232919
C        0.5375339605    0.6813246375    1.1276707680
C       -0.2157635758   -0.2925190930    1.7894121579
N       -1.1952139468   -1.0987289706    1.3808392820
C        1.5334150064    0.0601555776   -1.1932196719
C        0.2777807994    0.1501784004   -1.4689354405
H        0.8615990393    2.0808917169   -0.4592239726
H        1.1527992952    1.2833263769    1.7979261002
H        0.0141564531   -0.4219575743    2.8469770532
H        2.5272032854   -0.3287728867   -1.3507625950
H       -0.5879277039   -0.1293236418   -2.0489609233
13   
Iteration 59 Energy -340.96762049
C       -1.8047538522   -1.0545721145    0.2198037305
N       -2.4716412031   -1.1204779527   -0.7497433116
C        0.7112324712    1.0051947060   -0.3005436101
C        0.5382808037    0.6779826809    1.1269183042
C       -0.2149445405   -0.2951671325    1.7888428271
N       -1.1987185116   -1.0964838641    1.3807782256
C        1.5407634760    0.0657391215   -1.1924665855
C        0.2839085539    0.1395232056   -1.4677852798
H        0.8446457052    2.0798262392   -0.4628298377
H        1.1571231595    1.2776727592    1.7953496963
H        0.0179724771   -0.4293333618    2.8452578303
H        2.5391093608   -0.3112398299   -1.3502488431
H       -0.5787220214   -0.1511150706   -2.0470858428
13   
Iteration 58 Energy -340.96756018
C       -1.8124350745   -1.0440407198    0.2220239847
N       -2.4834716697   -1.1014979698   -0.7451987170
C        0.7069522353    1.0025716304   -0.3021671577
C        0.5391445002    0.6750882668    1.1261618303
C       -0.2141597242   -0.2981473648    1.7881235310
N       -1.2019709308   -1.0947534843    1.3801639382
C        1.5476947334    0.0710030745   -1.1915265570
C        0.2897439745    0.1290575752   -1.4666274380
H        0.8281330850    2.0784311501   -0.4664434763
H        1.1611913379    1.2730915782    1.7939049776
H        0.0223255914   -0.4364604758    2.8431068759
H        2.5503469891   -0.2943879403   -1.3494880780
H       -0.5692391690   -0.1724059340   -2.0457864105
13   
Iteration 57 Energy -340.96749589
C       -1.8198366040   -1.0333599921    0.2239975070
N       -2.4953000536   -1.0820443693   -0.7405900235
C        0.7032323659    1.0002213139   -0.3035027118
C        0.5395990577    0.6722844815    1.1254160607
C       -0.2130417927   -0.3009074349    1.7872254659
N       -1.2045336067   -1.0931703907    1.3795203487
C        1.5544752547    0.0762206649   -1.1904520342
C        0.2958299793    0.1185847127   -1.4652807965
H        0.8115819999    2.0770762163   -0.4703266959
H        1.1643735319    1.2685613367    1.7913978060
H        0.0265856144   -0.4443077824    2.8409235282
H        2.5611873204   -0.2778739829   -1.3484009604
H       -0.5598971887   -0.1937353876   -2.0436801909
13   
Iteration 56 Energy -340.96742681
C       -1.8271810237   -1.0228814118    0.2261018835
N       -2.5074370962   -1.0623854779   -0.7355406549
C        0.6988436488    0.9976504140   -0.3053871596
C        0.5400227019    0.6700020697    1.1246005548
C       -0.2119390870   -0.3041324427    1.7861262659
N       -1.2067911884   -1.0922926017    1.3782269490
C        1.5610768079    0.0810981974   -1.1890865006
C        0.3016865079    0.1082263212   -1.4637447037
H        0.7956498884    2.0753553626   -0.4744213629
H        1.1675357196    1.2648911826    1.7900667025
H        0.0312518750   -0.4518098403    2.8383178727
H        2.5717499169   -0.2616013049   -1.3469953752
H       -0.5502127924   -0.2145710819   -2.0420171682
13   
Iteration 55 Energy -340.96735109
C       -1.8344567198   -1.0119186092    0.2279689144
N       -2.5199946871   -1.0415970621   -0.7302320839
C        0.6953631714    0.9954512976   -0.3065404474
C        0.5401085505    0.6677807459    1.1238160988
C       -0.2104217537   -0.3072206090    1.7847174183
N       -1.2083748084   -1.0914887418    1.3767217931
C        1.5675970832    0.0861004084   -1.1875988571
C        0.3080081070    0.0975128568   -1.4621414943
H        0.7790013385    2.0737254996   -0.4788183080
H        1.1695118613    1.2617479040    1.7876814179
H        0.0362598529   -0.4606277730    2.8353782375
H        2.5820014590   -0.2456629808   -1.3451824326
H       -0.5403475763   -0.2362535499   -2.0395229534
13   
Iteration 54 Energy -340.96726748
C       -1.8418682012   -1.0011587011    0.2300392774
N       -2.5333858134   -1.0205166225   -0.7241225819
C        0.6908457464    0.9929670167   -0.3087715304
C        0.5400379559    0.6661971140    1.1228765063
C       -0.2088240413   -0.3108253359    1.7829859788
N       -1.2094480368   -1.0916154691    1.3744902428
C        1.5741953148    0.0907135242   -1.1856742289
C        0.3141851139    0.0869865668   -1.4601032954
H        0.7633560006    2.0717329746   -0.4836179258
H        1.1712961562    1.2590786808    1.7863541802
H        0.0416286932   -0.4690093601    2.8319741740
H        2.5923151820   -0.2296181418   -1.3428555352
H       -0.5300781917   -0.2573828604   -2.0373279583
13   
Iteration 53 Energy -340.96717731
C       -1.8491064942   -0.9903452304    0.2318630743
N       -2.5471357226   -0.9989648010   -0.7176799407
C        0.6876293632    0.9910930245   -0.3098794442
C        0.5395547411    0.6648258672    1.1219731182
C       -0.2069595344   -0.3142894008    1.7808902536
N       -1.2098622850   -1.0919235726    1.3718260618
C        1.5804381590    0.0953360363   -1.1836534694
C        0.3206967681    0.0763378586   -1.4582422733
H        0.7472909426    2.0699646851   -0.4886162915
H        1.1721211573    1.2576225709    1.7843277020
H        0.0473725252   -0.4786515669    2.8280730175
H        2.6019349421   -0.2146836808   -1.3400675111
H       -0.5197186837   -0.2787724036   -2.0345669938
13   
Iteration 52 Energy -340.96708192
C       -1.8561379398   -0.9803795662    0.2337836843
N       -2.5612335772   -0.9784486091   -0.7105425581
C        0.6837113750    0.9891125453   -0.3121123986
C        0.5390384126    0.6641253497    1.1209412396
C       -0.2049207081   -0.3179475127    1.7784569088
N       -1.2094987251   -1.0931508400    1.3686897815
C        1.5865630979    0.0993086595   -1.1813120710
C        0.3268079689    0.0667157075   -1.4560129820
H        0.7334978615    2.0680798807   -0.4936698122
H        1.1717668536    1.2565110975    1.7830348809
H        0.0531858082   -0.4874115906    2.8238816164
H        2.6111501259   -0.2006745647   -1.3367892747
H       -0.5096746747   -0.2982911706   -2.0321017116
13   
Iteration 51 Energy -340.96698192
C       -1.8629140250   -0.9710740625    0.2355589173
N       -2.5754388308   -0.9587617842   -0.7031023464
C        0.6809817810    0.9878681071   -0.3133399256
C        0.5378409799    0.6638349113    1.1198705488
C       -0.2029851690   -0.3214266700    1.7757807228
N       -1.2087478941   -1.0946635192    1.3650947228
C        1.5921128423    0.1030941702   -1.1788766661
C        0.3329470763    0.0574295150   -1.4541500630
H        0.7200773364    2.0665631245   -0.4988423691
H        1.1715626588    1.2565755207    1.7815972702
H        0.0590731115   -0.4967245487    2.8193085772
H        2.6194822673   -0.1882053320   -1.3330703149
H       -0.4997362560   -0.3169600459   -2.0295817706
13   
Iteration 50 Energy -340.96687709
C       -1.8694406996   -0.9626237150    0.2374322269
N       -2.5897986223   -0.9403392642   -0.6950022803
C        0.6780565075    0.9865508921   -0.3153459355
C        0.5370406098    0.6638590380    1.1187580267
C       -0.2006965493   -0.3249501196    1.7727549448
N       -1.2071928130   -1.0968588739    1.3613534157
C        1.5975851163    0.1062504509   -1.1763191989
C        0.3387698752    0.0494064802   -1.4521667988
H        0.7089628489    2.0650334734   -0.5037025924
H        1.1689960731    1.2572440012    1.7803426533
H        0.0650409584   -0.5053117821    2.8145081747
H        2.6273261122   -0.1771844435   -1.3289668484
H       -0.4903935387   -0.3335267513   -2.0273984845
13   
Iteration 49 Energy -340.96676656
C       -1.8758537212   -0.9551099937    0.2392920210
N       -2.6043637147   -0.9233584527   -0.6865472282
C        0.6758403835    0.9859955307   -0.3168035286
C        0.5350131388    0.6646016105    1.1174534383
C       -0.1988660279   -0.3282188940    1.7696606984
N       -1.2056037242   -1.0992769996    1.3571836377
C        1.6025486145    0.1092875362   -1.1736011768
C        0.3445014903    0.0417698199   -1.4505208166
H        0.6985059868    2.0639941084   -0.5089102742
H        1.1681743093    1.2580240950    1.7794517878
H        0.0708035102   -0.5138907566    2.8095073239
H        2.6345422108   -0.1671595329   -1.3244523569
H       -0.4809865776   -0.3491086849   -2.0254662224
13   
Iteration 48 Energy -340.96665075
C       -1.8820770154   -0.9482631244    0.2413450159
N       -2.6189177019   -0.9072688343   -0.6774376196
C        0.6739301811    0.9852026272   -0.3185393569
C        0.5342199886    0.6648934437    1.1162709973
C       -0.1964596455   -0.3317141197    1.7661126183
N       -1.2032546886   -1.1023435577    1.3531632503
C        1.6075048333    0.1116164215   -1.1709661947
C        0.3500778369    0.0354513939   -1.4490727483
H        0.6901277413    2.0628133312   -0.5132699397
H        1.1632930492    1.2607802053    1.7780112472
H        0.0769243500   -0.5221038538    2.8041803925
H        2.6412770896   -0.1590775626   -1.3195849196
H       -0.4723901400   -0.3624369842   -2.0239654395
13   
Iteration 47 Energy -340.96652242
C       -1.8884626338   -0.9421933738    0.2434765986
N       -2.6343722767   -0.8927088600   -0.6675962615
C        0.6720412000    0.9853054313   -0.3204300344
C        0.5311468783    0.6667832346    1.1145625987
C       -0.1947177171   -0.3346535794    1.7627164256
N       -1.2010532707   -1.1052788348    1.3485974196
C        1.6122485847    0.1142541679   -1.1679705071
C        0.3556881359    0.0292028214   -1.4477801678
H        0.6819569103    2.0623333923   -0.5187755596
H        1.1623441479    1.2611005293    1.7777959288
H        0.0825121056   -0.5300928869    2.7988499092
H        2.6479099687   -0.1508020863   -1.3142775554
H       -0.4629861545   -0.3757005693   -2.0229214915
13   
Iteration 46 Energy -340.96637418
C       -1.8954622584   -0.9362718093    0.2462142735
N       -2.6511245321   -0.8771205227   -0.6561157248
C        0.6708916813    0.9849704100   -0.3221023662
C        0.5299056243    0.6671837662    1.1131636940
C       -0.1922854936   -0.3386264212    1.7582101595
N       -1.1980203699   -1.1097326942    1.3439127085
C        1.6174015766    0.1160742907   -1.1648976859
C        0.3618145167    0.0237711298   -1.4468780126
H        0.6754079651    2.0614512942   -0.5231222888
H        1.1553052982    1.2664028848    1.7757028742
H        0.0896720730   -0.5388266938    2.7922574434
H        2.6546260820   -0.1443894254   -1.3078646942
H       -0.4538762847   -0.3873368228   -2.0222330774
13   
Iteration 45 Energy -340.96620192
C       -1.9027203194   -0.9308767477    0.2491918782
N       -2.6694227448   -0.8629968493   -0.6431767253
C        0.6693402031    0.9855388539   -0.3245924749
C        0.5262014790    0.6699370989    1.1107813274
C       -0.1900500467   -0.3417961692    1.7539444838
N       -1.1947816569   -1.1136343426    1.3386592973
C        1.6226785579    0.1184667326   -1.1613738021
C        0.3681605815    0.0184575004   -1.4461511231
H        0.6687599489    2.0613544591   -0.5291962833
H        1.1519770742    1.2671881145    1.7756821949
H        0.0959637730   -0.5472833862    2.7858293683
H        2.6615730600   -0.1374315656   -1.3009179331
H       -0.4434240311   -0.3993743123   -2.0224329049
13   
Iteration 44 Energy -340.96601352
C       -1.9103051909   -0.9262447131    0.2525761716
N       -2.6879340583   -0.8491515281   -0.6294857996
C        0.6686264549    0.9858406934   -0.3265144388
C        0.5236914537    0.6710112249    1.1089879920
C       -0.1879407686   -0.3457812542    1.7488324456
N       -1.1913739449   -1.1189894287    1.3334181007
C        1.6278674395    0.1199014239   -1.1578372586
C        0.3745731307    0.0141182978   -1.4458941205
H        0.6641920083    2.0610402794   -0.5338308946
H        1.1448841775    1.2732530042    1.7736995861
H        0.1035687808   -0.5559157831    2.7784072947
H        2.6681506700   -0.1325601383   -1.2930986811
H       -0.4337442740   -0.4089726917   -2.0230130943
13   
Iteration 43 Energy -340.96581141
C       -1.9174902410   -0.9223282481    0.2561635970
N       -2.7062703516   -0.8372665520   -0.6151573405
C        0.6678140583    0.9867545244   -0.3290055645
C        0.5200048587    0.6738410510    1.1064044198
C       -0.1856882458   -0.3488626310    1.7442486393
N       -1.1877132868   -1.1234958404    1.3283344259
C        1.6329284908    0.1216030018   -1.1542762101
C        0.3808337241    0.0104862829   -1.4460008143
H        0.6601117361    2.0613146696   -0.5393320496
H        1.1391730070    1.2750716806    1.7731355408
H        0.1099138557   -0.5636750452    2.7716491301
H        2.6744472911   -0.1280323656   -1.2853057698
H       -0.4238090180   -0.4178611416   -2.0246107009
13   
Iteration 42 Energy -340.96559681
C       -1.9248449264   -0.9192146464    0.2599259271
N       -2.7244073368   -0.8261552426   -0.6006795670
C        0.6674281564    0.9874485770   -0.3311310720
C        0.5167664017    0.6753240162    1.1042870898
C       -0.1839123828   -0.3524798882    1.7391288725
N       -1.1842673196   -1.1290519975    1.3232499334
C        1.6377111292    0.1225451437   -1.1507244316
C        0.3868916365    0.0075807441   -1.4465023628
H        0.6576625028    2.0614798355   -0.5437563143
H        1.1322950291    1.2811032434    1.7716784715
H        0.1171084330   -0.5713051388    2.7643146677
H        2.6803310522   -0.1250450641   -1.2769789487
H       -0.4145064966   -0.4246801960   -2.0265649623
13   
Iteration 41 Energy -340.96536941
C       -1.9317616189   -0.9165669800    0.2639541772
N       -2.7420949925   -0.8163549814   -0.5856178862
C        0.6671313971    0.9886310478   -0.3335253061
C        0.5129235718    0.6781312897    1.1016636597
C       -0.1818905473   -0.3553733039    1.7344990295
N       -1.1805295558   -1.1338735920    1.3184706837
C        1.6424316125    0.1236770442   -1.1471587197
C        0.3929223460    0.0052952697   -1.4473136570
H        0.6556084112    2.0620729165   -0.5486634707
H        1.1253722610    1.2834254776    1.7704577405
H        0.1233510075   -0.5782219348    2.7575061988
H        2.6859466805   -0.1224166842   -1.2686152797
H       -0.4051546944   -0.4308761829   -2.0294098666
13   
Iteration 40 Energy -340.96512874
C       -1.9388522594   -0.9145985304    0.2681080810
N       -2.7596685528   -0.8071993153   -0.5704711674
C        0.6669668163    0.9895473887   -0.3358530131
C        0.5092223373    0.6798453250    1.0992031522
C       -0.1802846636   -0.3587230178    1.7294112783
N       -1.1770191462   -1.1395876480    1.3136278530
C        1.6468819186    0.1241887128   -1.1436402484
C        0.3986911055    0.0035332522   -1.4485364126
H        0.6547780373    2.0625680144   -0.5528813288
H        1.1182617110    1.2894738550    1.7694591974
H        0.1301874932   -0.5850450394    2.7503189664
H        2.6912615136   -0.1209978863   -1.2598648918
H       -0.3961704323   -0.4354557246   -2.0326341628
13   
Iteration 39 Energy -340.96487427
C       -1.9455654756   -0.9129256541    0.2725580172
N       -2.7767826327   -0.7988747495   -0.5547015350
C        0.6669722107    0.9909117704   -0.3381907820
C        0.5050878323    0.6825818689    1.0965736425
C       -0.1785244108   -0.3615184465    1.7247264086