13   
Iteration 0 Energy -340.85691720
C       -1.4287399469    1.6856510202   -0.1931540082
N       -1.0277003619    2.2298437790    0.7976591599
C        0.7846517578    0.3543152248   -0.4627370580
C       -0.2437801740    0.5549181714    0.6492807744
C       -1.1114489371   -0.6366066306    1.0056742508
N       -2.3357761012   -0.6325396437    1.2606168954
C        1.4581668728   -0.9785488544   -0.6732245741
C        0.5925126011   -0.6269797580   -1.5761246945
H        1.3350301443    1.2821582732   -0.6406670124
H        0.2810654613    0.8551342752    1.5619237231
H       -0.5560343841   -1.5864054290    1.0712661630
H        2.1886911293   -1.6793753354   -0.2968139103
H        0.0709370935   -0.8198935608   -2.5010323019
13   
Iteration 1 Energy -340.85697007
C       -1.4359097405    1.6852463236   -0.1948434223
N       -1.0226724720    2.2231745910    0.7948586918
C        0.7872654445    0.3569183948   -0.4613201374
C       -0.2423159039    0.5589520441    0.6499540075
C       -1.1088748082   -0.6323922401    1.0119741079
N       -2.3341033260   -0.6328081517    1.2590492726
C        1.4537448899   -0.9788962240   -0.6735393750
C        0.5942022018   -0.6199173299   -1.5778719988
H        1.3435187562    1.2820671474   -0.6366038477
H        0.2792991096    0.8614884521    1.5629137340
H       -0.5473428410   -1.5777039485    1.0942300594
H        2.1790145244   -1.6856616007   -0.2970694653
H        0.0743159688   -0.8060798442   -2.5056196345
13   
Iteration 2 Energy -340.85704285
C       -1.4415452547    1.6796369527   -0.1944703874
N       -1.0210088527    2.2245408774    0.7883132322
C        0.7904539351    0.3580333580   -0.4572784654
C       -0.2397276124    0.5609889381    0.6525136614
C       -1.1022795171   -0.6317377544    1.0199075250
N       -2.3306653819   -0.6388804521    1.2503428759
C        1.4470627713   -0.9819327135   -0.6750432715
C        0.5932708494   -0.6113454474   -1.5798096686
H        1.3542932362    1.2797065834   -0.6268656180
H        0.2799444316    0.8678910823    1.5650294176
H       -0.5332058298   -1.5701255028    1.1267481918
H        2.1654189144   -1.6965127121   -0.2999909170
H        0.0744437976   -0.7873963782   -2.5101334417
13   
Iteration 3 Energy -340.85714271
C       -1.4474205222    1.6711699531   -0.1943654930
N       -1.0200504135    2.2277054656    0.7788450601
C        0.7945446078    0.3590321515   -0.4511281923
C       -0.2365979232    0.5637734510    0.6565247392
C       -1.0935745284   -0.6310533133    1.0300870530
N       -2.3268112288   -0.6493852393    1.2321525635
C        1.4376172135   -0.9863240045   -0.6778973072
C        0.5901039140   -0.5998194760   -1.5815948703
H        1.3683279063    1.2760312652   -0.6126640284
H        0.2805975785    0.8774262187    1.5681327009
H       -0.5150753869   -1.5590631697    1.1718480657
H        2.1470213734   -1.7113832458   -0.3059765351
H        0.0714111746   -0.7621600349   -2.5144258213
13   
Iteration 4 Energy -340.85727623
C       -1.4550133330    1.6598999516   -0.1954061988
N       -1.0196246994    2.2316282058    0.7652731794
C        0.7998548780    0.3600801308   -0.4423727934
C       -0.2329779822    0.5672962373    0.6621574234
C       -1.0830251395   -0.6302232743    1.0426311497
N       -2.3224021371   -0.6660753074    1.1996858555
C        1.4243076872   -0.9921745964   -0.6822362618
C        0.5850602247   -0.5839103623   -1.5836572494
H        1.3869364703    1.2705593415   -0.5928104412
H        0.2804189009    0.8899706592    1.5727028495
H       -0.4934515647   -1.5420988719    1.2350222591
H        2.1214589684   -1.7314261712   -0.3151990324
H        0.0660000600   -0.7274769922   -2.5192807418
13   
Iteration 5 Energy -340.85740415
C       -1.4629868027    1.6481280249   -0.1966834811
N       -1.0195912369    2.2357025449    0.7505625811
C        0.8052553903    0.3612772267   -0.4332858827
C       -0.2294094845    0.5710217235    0.6680314012
C       -1.0726141764   -0.6291922149    1.0550048202
N       -2.3165423772   -0.6854256428    1.1621593521
C        1.4103838746   -0.9976339064   -0.6870317457
C        0.5799429719   -0.5669610899   -1.5857188703
H        1.4058845716    1.2647374851   -0.5722779777
H        0.2798872549    0.9030959036    1.5773721156
H       -0.4741221157   -1.5221395613    1.3014245237
H        2.0945714262   -1.7513906354   -0.3252493698
H        0.0604092745   -0.6911265199   -2.5237714822
13   
Iteration 6 Energy -340.85751477
C       -1.4714209767    1.6361707774   -0.1978125743
N       -1.0204916934    2.2396856513    0.7356300664
C        0.8101039435    0.3626148316   -0.4241804540
C       -0.2264400607    0.5747663003    0.6740108316
C       -1.0630470329   -0.6280387688    1.0671883518
N       -2.3091116977   -0.7063758928    1.1241965162
C        1.3960264372   -1.0023840021   -0.6921150332
C        0.5747975629   -0.5494030166   -1.5878245201
H        1.4240721998    1.2588036692   -0.5516120107
H        0.2787561879    0.9164621479    1.5818871724
H       -0.4584878609   -1.5005023427    1.3666823135
H        2.0669280651   -1.7704387397   -0.3356904494
H        0.0549045012   -0.6541867622   -2.5279622675
13   
Iteration 7 Energy -340.85760485
C       -1.4803924491    1.6234668921   -0.2003925524
N       -1.0240765377    2.2415219446    0.7207130148
C        0.8152326201    0.3644743560   -0.4150459624
C       -0.2249395711    0.5771356182    0.6788338172
C       -1.0552213627   -0.6291469244    1.0748177156
N       -2.3008162765   -0.7323062415    1.0786993070
C        1.3826131785   -1.0055860678   -0.6986198028
C        0.5721707405   -0.5292433083   -1.5915466221
H        1.4423800753    1.2533757449   -0.5286577828
H        0.2745361565    0.9276153831    1.5862913648
H       -0.4475002719   -1.4797045042    1.4265294597
H        2.0394136842   -1.7881996069   -0.3477893987
H        0.0532085526   -0.6134489748   -2.5341878452
13   
Iteration 8 Energy -340.85766676
C       -1.4881092716    1.6089587354   -0.2061122578
N       -1.0308366582    2.2395458288    0.7058570994
C        0.8237891058    0.3686492172   -0.4067867407
C       -0.2228600479    0.5774112757    0.6809890417
C       -1.0458162264   -0.6346388218    1.0747580323
N       -2.2878411216   -0.7653376951    1.0243061911
C        1.3750937818   -1.0043963226   -0.7089139505
C        0.5773564197   -0.5031981950   -1.5991853299
H        1.4630878895    1.2509867210   -0.5024374272
H        0.2682086005    0.9354859194    1.5897873317
H       -0.4372579021   -1.4628091672    1.4751770185
H        2.0174384834   -1.8016679146   -0.3645377882
H        0.0615912099   -0.5648155031   -2.5452491776
13   
Iteration 9 Energy -340.85769992
C       -1.4925246839    1.5931108545   -0.2128569127
N       -1.0382130119    2.2377351721    0.6906361282
C        0.8392233110    0.3798541025   -0.4000769553
C       -0.2140014666    0.5807037501    0.6822034342
C       -1.0247107852   -0.6395279657    1.0763611026
N       -2.2612607121   -0.7982386764    0.9862096597
C        1.3751735814   -0.9941114315   -0.7265424143
C        0.5907018321   -0.4646579671   -1.6117374170
H        1.4902721700    1.2556904107   -0.4739961676
H        0.2683482675    0.9490649258    1.5912709062
H       -0.4130649642   -1.4464604707    1.5137917265
H        2.0027292041   -1.8071035970   -0.3919513206
H        0.0784188376   -0.4997909125   -2.5609664069
13   
Iteration 10 Energy -340.85770882
C       -1.4871879677    1.5811762543   -0.1926243620
N       -1.0162281872    2.2362436273    0.6946561804
C        0.8522300490    0.3864905213   -0.4136782661
C       -0.1841010589    0.5827980879    0.6850911011
C       -0.9775978559   -0.6421581746    1.0994567454
N       -2.2132055709   -0.8154697037    1.0239989293
C        1.3576894560   -0.9895104032   -0.7794128506
C        0.5722456510   -0.4247841353   -1.6411757340
H        1.5185775244    1.2516209869   -0.4770913989
H        0.3103343554    0.9601286371    1.5837711062
H       -0.3525152213   -1.4382867497    1.5377423627
H        1.9722293436   -1.8222514873   -0.4703608963
H        0.0441494287   -0.4274066168   -2.5822788813
13   
Iteration 11 Energy -340.85770926
C       -1.4545422695    1.5690223048   -0.1498959536
N       -0.9831951005    2.2100618702    0.7473621422
C        0.8899534502    0.3855925231   -0.4031536052
C       -0.1418804834    0.5643705618    0.7035154998
C       -0.9301418240   -0.6684056440    1.1038499037
N       -2.1645159793   -0.8482412367    1.0238253634
C        1.3932085161   -0.9849101160   -0.7917132668
C        0.6036253651   -0.4075561032   -1.6411469321
H        1.5558080874    1.2516587138   -0.4573068396
H        0.3563752262    0.9288909100    1.6054337670
H       -0.3013524838   -1.4652145506    1.5355629358
H        2.0086858408   -1.8224520198   -0.4979715271
H        0.0699773329   -0.3964413976   -2.5790429116
13   
Iteration 12 Energy -340.85771021
C       -1.4527942436    1.5663021794   -0.1466922939
N       -0.9809001877    2.2117715350    0.7470759166
C        0.8919285789    0.3864405771   -0.4034109309
C       -0.1365543819    0.5647761541    0.7061956992
C       -0.9209452869   -0.6691730189    1.1111511443
N       -2.1558517076   -0.8490909895    1.0398578046
C        1.3963351890   -0.9835785430   -0.7923939623
C        0.6038533569   -0.4078241696   -1.6402196506
H        1.5565920149    1.2533004018   -0.4597418996
H        0.3637231697    0.9322838945    1.6057248543
H       -0.2889180815   -1.4659903170    1.5381214541
H        2.0139543068   -1.8198956409   -0.4996227309
H        0.0683668739   -0.3979232987   -2.5770795121
13   
Iteration 13 Energy -340.85771028
C       -1.4494983832    1.5680209127   -0.1438206566
N       -0.9739494570    2.2117459643    0.7492958060
C        0.8916395337    0.3839828895   -0.4070127202
C       -0.1336717586    0.5639205365    0.7053056039
C       -0.9194062354   -0.6685159230    1.1119664817
N       -2.1547681758   -0.8464314505    1.0438396326
C        1.3935620549   -0.9867740643   -0.7964390354
C        0.5990713969   -0.4109438052   -1.6423486174
H        1.5568832650    1.2502341985   -0.4658775144
H        0.3696681514    0.9301145531    1.6036829404
H       -0.2875924231   -1.4666561387    1.5367717605
H        2.0112532647   -1.8234540351   -0.5048614282
H        0.0607273823   -0.4012514911   -2.5775804968
13   
Iteration 14 Energy -340.85771025
C       -1.4480974072    1.5733156960   -0.1416744874
N       -0.9700567226    2.2150534479    0.7515338744
C        0.8908172052    0.3860408315   -0.4124954650
C       -0.1312953401    0.5661647735    0.7027567236
C       -0.9178153216   -0.6656006298    1.1100123670
N       -2.1538032515   -0.8408043383    1.0462035521
C        1.3896650660   -0.9849714746   -0.8050019176
C        0.5938209396   -0.4068533840   -1.6480791950
H        1.5571685327    1.2513827803   -0.4720555790
H        0.3749361924    0.9305567156    1.6002423709
H       -0.2860527998   -1.4657379184    1.5311294845
H        2.0068728653   -1.8229835402   -0.5162462870
H        0.0530796522   -0.3951938943   -2.5819043667
