13   
Iteration 127 Energy -340.99824280
C       -2.4915280162   -0.7472028129    1.6904773956
N       -3.4310904964   -0.2012685005    2.1392001850
C        0.7008643829    0.9743889230   -0.6554619376
C       -0.3944485491    0.4059985714    0.1414180219
C       -0.5032990921   -0.9314253685    0.5202865471
N       -1.4847828281   -1.4783404969    1.2453462418
C        2.1156880094    0.3892291186   -0.6046925914
C        1.4621101307    0.1339045658   -1.6856013019
H        0.5980454255    2.0432906417   -0.8462169871
H       -1.1809393729    1.0889998479    0.4587880071
H        0.2669577611   -1.6366815609    0.2163926550
H        2.9826465366    0.2977274122    0.0314182210
H        1.3594521278   -0.3370750297   -2.6511149587
