13   
Iteration 0 Energy -340.97574457
C       -2.4915280162   -0.7472028129    1.6904773956
N       -3.4310904964   -0.2012685005    2.1392001850
C        0.7008643829    0.9743889230   -0.6554619376
C       -0.3944485491    0.4059985714    0.1414180219
C       -0.5032990921   -0.9314253685    0.5202865471
N       -1.4847828281   -1.4783404969    1.2453462418
C        2.1156880094    0.3892291186   -0.6046925914
C        1.4621101307    0.1339045658   -1.6856013019
H        0.5980454255    2.0432906417   -0.8462169871
H       -1.1809393729    1.0889998479    0.4587880071
H        0.2669577611   -1.6366815609    0.2163926550
H        2.9826465366    0.2977274122    0.0314182210
H        1.3594521278   -0.3370750297   -2.6511149587
13   
Iteration 1 Energy -340.97575546
C       -2.4907514373   -0.7556488730    1.6901978525
N       -3.4331886845   -0.2144794958    2.1380530769
C        0.7028252742    0.9757387504   -0.6566807994
C       -0.3942814518    0.4125224471    0.1418027547
C       -0.5036443022   -0.9230172674    0.5209485081
N       -1.4792567306   -1.4797869596    1.2444895359
C        2.1133785209    0.3854697539   -0.6042072429
C        1.4593006157    0.1306083377   -1.6835342622
H        0.6035544195    2.0455068097   -0.8493775642
H       -1.1807823979    1.0949698186    0.4601200276
H        0.2704263254   -1.6233706656    0.2136434362
H        2.9804660254    0.2910979283    0.0323071212
H        1.3551225962   -0.3429347369   -2.6483106430
13   
Iteration 2 Energy -340.97575196
C       -2.4853262731   -0.7471133467    1.6837359831
N       -3.4242763213   -0.1939644766    2.1236884572
C        0.6992290633    0.9719592820   -0.6533352690
C       -0.3942556535    0.4013941457    0.1457986536
C       -0.4983617954   -0.9341778786    0.5220001494
N       -1.4778419023   -1.4818645655    1.2456056848
C        2.1114610000    0.3898367636   -0.6054012972
C        1.4569120214    0.1353810206   -1.6835647086
H        0.5933107028    2.0425361380   -0.8416658802
H       -1.1840718967    1.0782095613    0.4679847500
H        0.2768195503   -1.6340661907    0.2144486633
H        2.9808096390    0.2973044418    0.0289595822
H        1.3539262813   -0.3358549621   -2.6500541267
13   
Iteration 3 Energy -340.97576401
C       -2.4896006020   -0.7515558494    1.6885476914
N       -3.4293765763   -0.2023860934    2.1319995946
C        0.7015720627    0.9730362750   -0.6551733012
C       -0.3930496753    0.4035387631    0.1432848094
C       -0.5019834611   -0.9322692686    0.5222881922
N       -1.4809366312   -1.4824704120    1.2463224675
C        2.1144982166    0.3903187152   -0.6062504431
C        1.4601041622    0.1355766406   -1.6854242589
H        0.5962119286    2.0431163955   -0.8438487575
H       -1.1809985741    1.0837801907    0.4629103875
H        0.2716722963   -1.6340972820    0.2165120175
H        2.9831481706    0.2979118977    0.0284038852
H        1.3575685005   -0.3355385964   -2.6515620387
13   
Iteration 4 Energy -340.97576063
C       -2.4870288456   -0.7569448150    1.6884823105
N       -3.4284912486   -0.2124159342    2.1341410531
C        0.7014547903    0.9748423367   -0.6555542516
C       -0.3953782973    0.4100940037    0.1430077531
C       -0.4995532113   -0.9270940910    0.5195671614
N       -1.4759377952   -1.4827212042    1.2432613227
C        2.1122635049    0.3867143831   -0.6038118308
C        1.4577744340    0.1319327365   -1.6832900502
H        0.5996828229    2.0447501227   -0.8463651706
H       -1.1832341572    1.0907388202    0.4622273813
H        0.2759164852   -1.6259966302    0.2120125033
H        2.9798488793    0.2921910117    0.0317743559
H        1.3545285246   -0.3411025140   -2.6482723197
13   
Iteration 5 Energy -340.97576444
C       -2.4883275886   -0.7539839394    1.6883855120
N       -3.4289503461   -0.2069820991    2.1327416480
C        0.7014790473    0.9738214817   -0.6553038075
C       -0.3943513296    0.4070379878    0.1432670622
C       -0.5007995869   -0.9294586267    0.5209487798
N       -1.4784238169   -1.4823967107    1.2448153757
C        2.1132752930    0.3883531525   -0.6049554011
C        1.4587797487    0.1335790154   -1.6842662253
H        0.5980521734    2.0438323536   -0.8451379758
H       -1.1822347941    1.0874758970    0.4627853020
H        0.2738524596   -1.6297039607    0.2141892645
H        2.9814293394    0.2948836916    0.0301294028
H        1.3558467161   -0.3385507094   -2.6498055168
13   
Iteration 6 Energy -340.97576506
C       -2.4876384936   -0.7546099342    1.6879791614
N       -3.4280442777   -0.2065283899    2.1314063442
C        0.7012981988    0.9738033172   -0.6551459542
C       -0.3936905759    0.4051830370    0.1435324656
C       -0.5001648600   -0.9311697056    0.5213602285
N       -1.4779363283   -1.4837347308    1.2451199073
C        2.1133691478    0.3894036858   -0.6054374739
C        1.4587763028    0.1347245682   -1.6846445356
H        0.5966344798    2.0439106516   -0.8441632560
H       -1.1819476093    1.0849744816    0.4633534667
H        0.2744200135   -1.6315011715    0.2146363595
H        2.9818410107    0.2959633928    0.0292786686
H        1.3561473784   -0.3371297717   -2.6503938174
13   
Iteration 7 Energy -340.97576514
C       -2.4869509049   -0.7565356702    1.6880060716
N       -3.4273862876   -0.2082102123    2.1310355581
C        0.7012211403    0.9733344108   -0.6549323815
C       -0.3934303538    0.4037814005    0.1437694797
C       -0.4994674288   -0.9326021182    0.5214995683
N       -1.4770903891   -1.4855146116    1.2451908686
C        2.1138617992    0.3903973054   -0.6060759042
C        1.4591991383    0.1358060070   -1.6852256524
H        0.5953376317    2.0434784685   -0.8431110303
H       -1.1820246315    1.0831015000    0.4637215651
H        0.2753454167   -1.6326525778    0.2147266084
H        2.9827337092    0.2972105239    0.0281474080
H        1.3570648067   -0.3354874878   -2.6513143978
