13   
IRC reactant Energy -340.99817169
C       -2.4516540375    1.3434408359    1.2710550594
N       -2.7610154984    2.4125839948    1.6499212789
C        1.2906128387    0.1481759817   -0.5247008058
C        0.0259139661    0.5731129922    0.0901107310
C       -1.0668461591   -0.2574568714    0.3357239820
N       -2.2309145963    0.0974576459    0.8898475678
C        1.8133972718   -1.2834580998   -0.3734369411
C        1.3414216787   -0.9992452890   -1.5384391151
H        2.0227498366    0.9501177119   -0.6259556631
H       -0.0588794550    1.6210607783    0.3732958350
H       -1.0092408107   -1.3091610395    0.0644733564
H        2.2405974718   -1.9680947585    0.3429855164
H        1.0686594590   -1.2619592934   -2.5488993225
