13   
Iteration 0 Energy -340.99817169
C       -2.4516540375    1.3434408359    1.2710550594
N       -2.7610154984    2.4125839948    1.6499212789
C        1.2906128387    0.1481759817   -0.5247008058
C        0.0259139661    0.5731129922    0.0901107310
C       -1.0668461591   -0.2574568714    0.3357239820
N       -2.2309145963    0.0974576459    0.8898475678
C        1.8133972718   -1.2834580998   -0.3734369411
C        1.3414216787   -0.9992452890   -1.5384391151
H        2.0227498366    0.9501177119   -0.6259556631
H       -0.0588794550    1.6210607783    0.3732958350
H       -1.0092408107   -1.3091610395    0.0644733564
H        2.2405974718   -1.9680947585    0.3429855164
H        1.0686594590   -1.2619592934   -2.5488993225
13   
Iteration 1 Energy -340.99817154
C       -2.4535291190    1.3407802062    1.2738183757
N       -2.7647369542    2.4087026230    1.6546143565
C        1.2911393542    0.1481204875   -0.5256503082
C        0.0263424311    0.5742807374    0.0881497355
C       -1.0665029268   -0.2561405503    0.3338457530
N       -2.2309082859    0.0962592622    0.8889359841
C        1.8130723436   -1.2836401035   -0.3725554336
C        1.3421334715   -1.0003266793   -1.5381890787
H        2.0237784391    0.9495693502   -0.6271497044
H       -0.0581637589    1.6223768976    0.3709494871
H       -1.0082151266   -1.3076207548    0.0619072605
H        2.2393794035   -1.9677741079    0.3448713979
H        1.0699877367   -1.2638981632   -2.5485849183
