13   
Iteration 0 Energy -340.96791661
C       -1.7104945160   -1.3578085495    0.0043123850
N       -2.3923983013   -1.4246920494   -0.9545742402
C        0.5797640439    1.0528976902   -0.3278284351
C        0.3969720968    0.6052561940    1.0590691946
C       -0.2222072361   -0.5148371407    1.6310880913
N       -1.0777993905   -1.4160891928    1.1503334954
C        1.2820941780    0.1335872859   -1.3524388714
C        0.0354360974    0.3675991310   -1.5728108013
H        0.8125538636    2.1186256031   -0.3889952542
H        0.9058973718    1.2324502704    1.7913218877
H        0.0273410101   -0.6970058477    2.6761143123
H        2.2321246742   -0.3259422762   -1.5733014944
H       -0.8692838918    0.2259588816   -2.1422902698
13   
Iteration 1 Energy -340.96752900
C       -1.6412454334   -1.3539828246   -0.0407218121
N       -2.2552590419   -1.4461688693   -1.0423157695
C        0.5798221721    1.0506094144   -0.3170943069
C        0.4113914135    0.6157552139    1.0755208599
C       -0.2315509100   -0.4914476079    1.6415221091
N       -1.0822281833   -1.3864376641    1.1439555481
C        1.2318944034    0.1079474501   -1.3493010785
C       -0.0131928010    0.3696108070   -1.5404458022
H        0.8365968646    2.1109435493   -0.3903942570
H        0.9465843345    1.2279890189    1.8018702620
H       -0.0061741011   -0.6705863178    2.6929693287
H        2.1644736034   -0.3776331733   -1.5896685498
H       -0.9360531370    0.2451417546   -2.0847191264
13   
Iteration 2 Energy -340.96782807
C       -1.6747807396   -1.3473494084   -0.0219409495
N       -2.3251307324   -1.4201008378   -1.0019715646
C        0.5767456302    1.0499878923   -0.3219559886
C        0.4045745968    0.6123111395    1.0693299084
C       -0.2229664532   -0.5043120056    1.6344495286
N       -1.0744997873   -1.4011813109    1.1415802020
C        1.2565527144    0.1190863021   -1.3474256063
C        0.0097544484    0.3608195398   -1.5532180767
H        0.8172460826    2.1142542197   -0.3922704384
H        0.9240225784    1.2345527920    1.7985832292
H        0.0157914144   -0.6889151140    2.6819535773
H        2.1998951913   -0.3503930082   -1.5774217918
H       -0.9041819935    0.2222799286   -2.1089885094
13   
Iteration 3 Energy -340.96799932
C       -1.6902575106   -1.3638853198   -0.0087362301
N       -2.3460852702   -1.4492254180   -0.9840543743
C        0.5834387433    1.0535692595   -0.3242850984
C        0.4033307945    0.6091183551    1.0641321721
C       -0.2280993285   -0.5040889470    1.6319853355
N       -1.0829322655   -1.4046697086    1.1515742839
C        1.2642563129    0.1263222254   -1.3519805909
C        0.0197137327    0.3742046811   -1.5623758522
H        0.8285055899    2.1173782789   -0.3871529623
H        0.9236388202    1.2282485765    1.7953816444
H        0.0127986964   -0.6831426830    2.6800111725
H        2.2068693519   -0.3454911513   -1.5803369798
H       -0.8919686509    0.2427430488   -2.1234314669
13   
Iteration 4 Energy -340.96805768
C       -1.6823962857   -1.3809220278   -0.0037969459
N       -2.3167555635   -1.4906569767   -0.9907571237
C        0.5896622214    1.0530184539   -0.3253258177
C        0.4036042689    0.6010445179    1.0604415622
C       -0.2378677176   -0.4981110645    1.6430394143
N       -1.0961546764   -1.3976497080    1.1680162375
C        1.2566313687    0.1280622107   -1.3609389538
C        0.0160762949    0.3952170120   -1.5700015444
H        0.8489323511    2.1145466718   -0.3769544931
H        0.9353077276    1.2132273434    1.7891585249
H       -0.0046666234   -0.6627719018    2.6955232832
H        2.1925648967   -0.3548018089   -1.5941664748
H       -0.8969068072    0.2823659150   -2.1328547642
13   
Iteration 5 Energy -340.96804340
C       -1.6717717484   -1.4080288186   -0.0080824475
N       -2.2798464507   -1.5557692133   -1.0065197362
C        0.6016148896    1.0560020868   -0.3216563739
C        0.4154360433    0.6049922636    1.0648802934
C       -0.2500634281   -0.4834220851    1.6388470737
N       -1.1110505709   -1.3861076291    1.1758235353
C        1.2419872159    0.1263125331   -1.3655906854
C        0.0057522494    0.4181569809   -1.5656223076
H        0.8799992459    2.1134672092   -0.3675108379
H        0.9629717307    1.2026891009    1.7943250027
H       -0.0334293071   -0.6360624298    2.6966390315
H        2.1665165185   -0.3736824768   -1.6086818428
H       -0.9125870504    0.3261242184   -2.1233123685
13   
Iteration 6 Energy -340.96809249
C       -1.6767439583   -1.3944207609   -0.0079696673
N       -2.2992569628   -1.5241886580   -1.0000904307
C        0.5981953939    1.0537379380   -0.3226551833
C        0.4131590844    0.6016894827    1.0638747425
C       -0.2440932015   -0.4909468634    1.6431298192
N       -1.1046088635   -1.3905329925    1.1705993873
C        1.2512054811    0.1292055470   -1.3663739995
C        0.0105420313    0.4053655906   -1.5662152331
H        0.8639747354    2.1136999456   -0.3705016241
H        0.9529167151    1.2070266685    1.7925760930
H       -0.0264560325   -0.6462572156    2.6999781393
H        2.1815101213   -0.3596269656   -1.6089066880
H       -0.9059350974    0.3001242890   -2.1242565969
13   
Iteration 7 Energy -340.96809620
C       -1.6743469791   -1.3936739112   -0.0089162045
N       -2.2954010998   -1.5244447576   -1.0019129149
C        0.5988081523    1.0525864732   -0.3220832745
C        0.4145009143    0.6004223851    1.0644886005
C       -0.2452232211   -0.4896932304    1.6447710419
N       -1.1056802696   -1.3882354581    1.1709257834
C        1.2508158667    0.1297681726   -1.3677300985
C        0.0097639638    0.4053544166   -1.5655708235
H        0.8638831554    2.1128245753   -0.3693404810
H        0.9548756935    1.2053475768    1.7929936266
H       -0.0288542302   -0.6450140405    2.7018319962
H        2.1809075374   -0.3584475829   -1.6125596413
H       -0.9069955075    0.2996447983   -2.1231945056
13   
Iteration 8 Energy -340.96809821
C       -1.6732380437   -1.3942936684   -0.0099139603
N       -2.2931222075   -1.5275861199   -1.0034340650
C        0.6009371580    1.0516542628   -0.3211939496
C        0.4176636878    0.5988360218    1.0653719231
C       -0.2467574686   -0.4881269162    1.6459996329
N       -1.1081683374   -1.3853000541    1.1712615536
C        1.2514298693    0.1315925058   -1.3698537306
C        0.0094964449    0.4060118242   -1.5643715290
H        0.8648309128    2.1122899978   -0.3674407581
H        0.9592840496    1.2027554159    1.7937688163
H       -0.0336693545   -0.6421534208    2.7038954307
H        2.1811894962   -0.3554510230   -1.6182860725
H       -0.9078064177    0.2993693613   -2.1209266388
13   
Iteration 9 Energy -340.96809844
C       -1.6735910969   -1.3939113728   -0.0097662974
N       -2.2935463949   -1.5270422009   -1.0032819130
C        0.6011567332    1.0515035168   -0.3210428080
C        0.4184868509    0.5984154018    1.0655413249
C       -0.2468238511   -0.4879828539    1.6461016155
N       -1.1088234064   -1.3846616597    1.1714981184
C        1.2520364671    0.1322467733   -1.3700552496
C        0.0099469455    0.4061075498   -1.5643907740
H        0.8644914940    2.1123204092   -0.3670472082
H        0.9606273739    1.2019604146    1.7938765789
H       -0.0339392485   -0.6420685607    2.7040412661
H        2.1819992238   -0.3542180615   -1.6188769001
H       -0.9072548521    0.2989964050   -2.1210333806
