13   
Climbing Image - Chain 57 Image 6 Energy  -340.9675021262 (+19.246 kcal/mol) RMSGrad 0.024 eV/Ang
C       -2.4815317130    0.4010609758   -0.0288428197
N       -3.0256483356    1.2468113926   -0.6238732702
C        1.1426702063    0.5467049142   -0.1339412139
C        0.1846217351    0.4398421999    0.9732405208
C       -0.7928506044   -0.6561754828    1.0872977636
N       -2.0015252170   -0.6657444761    0.6356373200
C        1.8248442463   -0.6851963770   -0.7482694966
C        0.8996256060   -0.1477983368   -1.4732706119
H        1.6991901043    1.4859549263   -0.1319662407
H        0.2026510394    1.1805403729    1.7705094849
H       -0.5043334726   -1.5747716012    1.6067861929
H        2.5676970811   -1.4494672981   -0.5740836137
H        0.2829830842   -0.1299246151   -2.3596743095
