13   
Iteration 0 Energy -340.96750213
C       -2.4815317130    0.4010609758   -0.0288428197
N       -3.0256483356    1.2468113926   -0.6238732702
C        1.1426702063    0.5467049142   -0.1339412139
C        0.1846217351    0.4398421999    0.9732405208
C       -0.7928506044   -0.6561754828    1.0872977636
N       -2.0015252170   -0.6657444761    0.6356373200
C        1.8248442463   -0.6851963770   -0.7482694966
C        0.8996256060   -0.1477983368   -1.4732706119
H        1.6991901043    1.4859549263   -0.1319662407
H        0.2026510394    1.1805403729    1.7705094849
H       -0.5043334726   -1.5747716012    1.6067861929
H        2.5676970811   -1.4494672981   -0.5740836137
H        0.2829830842   -0.1299246151   -2.3596743095
13   
Iteration 1 Energy -340.96754622
C       -2.4862490738    0.3964345623   -0.0264166751
N       -3.0334337656    1.2359173181   -0.6277636945
C        1.1450263460    0.5466895637   -0.1361682042
C        0.1831490473    0.4398098339    0.9677745272
C       -0.7940391070   -0.6553822237    1.0904187763
N       -2.0046644602   -0.6662010221    0.6435232481
C        1.8232105133   -0.6866492948   -0.7524136919
C        0.9056389023   -0.1395045161   -1.4796486380
H        1.7055110145    1.4832442379   -0.1280095738
H        0.1997296279    1.1839898463    1.7618601589
H       -0.5031235564   -1.5713696802    1.6146890378
H        2.5599846803   -1.4565793508   -0.5779595845
H        0.2929488681   -0.1113649053   -2.3685040723
13   
Iteration 2 Energy -340.96761084
C       -2.4893267476    0.3909672263   -0.0193218526
N       -3.0415082655    1.2243069808   -0.6247175483
C        1.1514360093    0.5446439600   -0.1344825790
C        0.1841550682    0.4461188503    0.9652754197
C       -0.7892451814   -0.6513996429    1.0943923075
N       -2.0020758862   -0.6668971871    0.6539966892
C        1.8160352478   -0.6956300661   -0.7512685274
C        0.9090769312   -0.1345367982   -1.4811665404
H        1.7221815660    1.4747593057   -0.1222735296
H        0.1954152028    1.1972129202    1.7529209642
H       -0.4928829887   -1.5647341207    1.6201215888
H        2.5408935363   -1.4767920263   -0.5763038465
H        0.2995767686   -0.0941184604   -2.3717158691
13   
Iteration 3 Energy -340.96765938
C       -2.4833769034    0.3777417948   -0.0176538647
N       -3.0341263766    1.2023002898   -0.6362707960
C        1.1553357162    0.5374077679   -0.1211343960
C        0.1865943537    0.4476412101    0.9778559322
C       -0.7854396674   -0.6503087978    1.1125507528
N       -1.9968928611   -0.6719682674    0.6687408413
C        1.7961610113   -0.7103497628   -0.7469117270
C        0.8991283431   -0.1284584947   -1.4726615190
H        1.7413446873    1.4579222831   -0.1043448228
H        0.1968859157    1.2030144383    1.7613432658
H       -0.4882358750   -1.5588206820    1.6461838999
H        2.5055847300   -1.5068765406   -0.5777224293
H        0.2887043256   -0.0705090033   -2.3616264843
13   
Iteration 4 Energy -340.96770336
C       -2.4777632146    0.3602716479   -0.0258399554
N       -3.0278889024    1.1718778473   -0.6618904450
C        1.1575927124    0.5332994862   -0.1107761200
C        0.1885795763    0.4530115077    0.9886825066
C       -0.7841641333   -0.6432460880    1.1338114392
N       -1.9923752956   -0.6754955629    0.6819510280
C        1.7690498353   -0.7202730730   -0.7525357090
C        0.8839288074   -0.1110335375   -1.4702606100
H        1.7626700603    1.4412089731   -0.0855140647
H        0.2021705495    1.2129204916    1.7677562282
H       -0.4890718625   -1.5421501014    1.6848721969
H        2.4599059502   -1.5350281495   -0.5935315360
H        0.2725804564   -0.0289040668   -2.3565867147
13   
Iteration 5 Energy -340.96773191
C       -2.4718391205    0.3476957844   -0.0350485625
N       -3.0186562490    1.1530097656   -0.6818278873
C        1.1573632674    0.5330260640   -0.1062349921
C        0.1877974676    0.4557410209    0.9929469781
C       -0.7840025379   -0.6404961157    1.1450955654
N       -1.9895314751   -0.6799758929    0.6865402789
C        1.7555541422   -0.7209957003   -0.7581386011
C        0.8764418978   -0.0977924200   -1.4712373478
H        1.7712750712    1.4348154647   -0.0747093018
H        0.2016078147    1.2189656163    1.7688394202
H       -0.4909665985   -1.5321829049    1.7089417431
H        2.4377377522   -1.5442165375   -0.6054544576
H        0.2655193611   -0.0025044365   -2.3565167082
13   
Iteration 6 Energy -340.96777953
C       -2.4753342942    0.3266784263   -0.0510805489
N       -3.0270049365    1.1151371950   -0.7143065969
C        1.1576633132    0.5449913928   -0.0988263593
C        0.1805618090    0.4751750408    0.9941893975
C       -0.7849818352   -0.6253142889    1.1563251484
N       -1.9870298988   -0.6834586566    0.6906728417
C        1.7319294414   -0.7112884432   -0.7656745711
C        0.8695404404   -0.0608948096   -1.4747967750
H        1.7890739470    1.4340618423   -0.0529887646
H        0.1874767040    1.2467847524    1.7619797756
H       -0.4887870059   -1.5045631638    1.7379546128
H        2.3948265963   -1.5516603165   -0.6213829178
H        0.2643644178    0.0600600332   -2.3607522295
13   
Iteration 7 Energy -340.96779747
C       -2.4702088395    0.3175738664   -0.0521954310
N       -3.0186277607    1.1043232299   -0.7201301468
C        1.1562765652    0.5474366157   -0.0957477607
C        0.1773146739    0.4797348339    0.9956552946
C       -0.7820792035   -0.6250532449    1.1625182634
N       -1.9831552986   -0.6894150455    0.6949865104
C        1.7247395403   -0.7089469782   -0.7656368956
C        0.8648178249   -0.0539686180   -1.4735778761
H        1.7905549547    1.4342984554   -0.0486054611
H        0.1754134236    1.2581546510    1.7563942896
H       -0.4827939827   -1.5001408385    1.7486427723
H        2.3838428403   -1.5525916039   -0.6229324964
H        0.2593015464    0.0712285832   -2.3587387782
13   
Iteration 8 Energy -340.96781104
C       -2.4700267580    0.3089894559   -0.0543341587
N       -3.0188898575    1.0902766609   -0.7282819429
C        1.1579893921    0.5485410800   -0.0900758153
C        0.1754910339    0.4839536477    0.9983346490
C       -0.7810920017   -0.6230361906    1.1674247550
N       -1.9812647942   -0.6930009095    0.6983669883
C        1.7169132095   -0.7087879794   -0.7652426653
C        0.8635290808   -0.0437998363   -1.4717011755
H        1.7986088865    1.4306055248   -0.0383651647
H        0.1665911540    1.2679632340    1.7532556470
H       -0.4797915652   -1.4951750607    1.7570384450
H        2.3685140421   -1.5587906253   -0.6256820550
H        0.2597117096    0.0908797992   -2.3565578993
13   
Iteration 9 Energy -340.96781870
C       -2.4653728232    0.2995968054   -0.0562754500
N       -3.0124727561    1.0770582495   -0.7360643590
C        1.1595590888    0.5461357642   -0.0829664727
C        0.1755413849    0.4842157704    1.0041999837
C       -0.7792324754   -0.6239309751    1.1751713210
N       -1.9778101295   -0.6982492384    0.7027043729
C        1.7103551816   -0.7119110493   -0.7624327651
C        0.8610756675   -0.0396773388   -1.4669571970
H        1.8049589578    1.4245136823   -0.0287530657
H        0.1615690600    1.2727124719    1.7543036264
H       -0.4777062381   -1.4930487999    1.7690194871
H        2.3564453387   -1.5666037394   -0.6258553804
H        0.2573568840    0.1015929890   -2.3508351455
13   
Iteration 10 Energy -340.96782312
C       -2.4624596601    0.2919188425   -0.0574034421
N       -3.0081863425    1.0657292031   -0.7424462957
C        1.1607191146    0.5440520054   -0.0764765625
C        0.1754911414    0.4842484390    1.0097524945
C       -0.7787504962   -0.6240105588    1.1829367788
N       -1.9759766050   -0.7018443466    0.7075571760
C        1.7040313744   -0.7143187355   -0.7606197322
C        0.8589951093   -0.0346959878   -1.4631403206
H        1.8108374086    1.4187604579   -0.0191796338
H        0.1585404509    1.2760486125    1.7563137109
H       -0.4778470565   -1.4901268443    1.7815120736
H        2.3448697241   -1.5734638103   -0.6271181213
H        0.2558550980    0.1133463729   -2.3462935107
13   
Iteration 11 Energy -340.96782536
C       -2.4595470106    0.2866654720   -0.0584783618
N       -3.0037167146    1.0581571256   -0.7473617337
C        1.1616481400    0.5423715526   -0.0713864615
C        0.1755819739    0.4841018808    1.0141878247
C       -0.7784622587   -0.6240573113    1.1890005272
N       -1.9745154780   -0.7042863625    0.7110294666
C        1.6996905739   -0.7161072865   -0.7588476477
C        0.8577126624   -0.0312584537   -1.4599639034
H        1.8151134113    1.4144281838   -0.0118215939
H        0.1565058223    1.2783679658    1.7580764690
H       -0.4785106750   -1.4877983724    1.7914662434
H        2.3368448423   -1.5783360536   -0.6275546280
H        0.2550204014    0.1215607109   -2.3425955421
13   
Iteration 12 Energy -340.96782660
C       -2.4574796608    0.2826525924   -0.0584252097
N       -3.0005343285    1.0525709222   -0.7499359854
C        1.1622560772    0.5413082434   -0.0668776131
C        0.1754845005    0.4837831211    1.0181212479
C       -0.7782142315   -0.6245317984    1.1938457654
N       -1.9734480155   -0.7064553185    0.7140756124
C        1.6970384966   -0.7170205853   -0.7567001722
C        0.8571783849   -0.0286615117   -1.4569032193
H        1.8178290926    1.4116676402   -0.0055074241
H        0.1543728420    1.2798737461    1.7599967734
H       -0.4788001231   -1.4867175981    1.7987939694
H        2.3318645274   -1.5811893271   -0.6269518726
H        0.2549634710    0.1274395758   -2.3392640754
13   
Iteration 13 Energy -340.96782732
C       -2.4555961053    0.2794749974   -0.0578186348
N       -2.9978328134    1.0484261267   -0.7510457355
C        1.1632182838    0.5400784454   -0.0629435310
C        0.1758154674    0.4830220047    1.0215266132
C       -0.7776158315   -0.6254480544    1.1976567336
N       -1.9722709685   -0.7084769679    0.7166046552
C        1.6956825426   -0.7180916225   -0.7545167339
C        0.8573790788   -0.0271682975   -1.4540564839
H        1.8202930570    1.4092068825   -0.0002059053
H        0.1528697026    1.2805657294    1.7617812823
H       -0.4785603663   -1.4866639131    1.8041580587
H        2.3288471499   -1.5836561273   -0.6259312148
H        0.2555154109    0.1313566901   -2.3362131788
13   
Iteration 14 Energy -340.96782771
C       -2.4537226962    0.2768951120   -0.0571994286
N       -2.9950103331    1.0449905550   -0.7521179362
C        1.1644635644    0.5383585505   -0.0588450671
C        0.1763242542    0.4821219029    1.0250054133
C       -0.7771484700   -0.6262688332    1.2013235486
N       -1.9712439523   -0.7100720070    0.7190005966
C        1.6945655769   -0.7199333299   -0.7517421636
C        0.8578875574   -0.0266005693   -1.4508457190
H        1.8230972466    1.4062191236    0.0050175812
H        0.1518956773    1.2809708630    1.7638037199
H       -0.4786045681   -1.4867232715    1.8091579426
H        2.3259697490   -1.5869208706   -0.6240336526
H        0.2563890212    0.1341416819   -2.3328450281
13   
Iteration 15 Energy -340.96782784
C       -2.4520634460    0.2747373880   -0.0553429696
N       -2.9923269287    1.0422440006   -0.7517095429
C        1.1653025900    0.5365452059   -0.0542917395
C        0.1767282523    0.4809412614    1.0292060687
C       -0.7768653149   -0.6273013125    1.2056834110
N       -1.9705274440   -0.7115256684    0.7223397331
C        1.6932084076   -0.7218357871   -0.7484755070
C        0.8578506552   -0.0263709708   -1.4470403667
H        1.8253074217    1.4032999123    0.0104723176
H        0.1511622930    1.2808064042    1.7668627420
H       -0.4788274204   -1.4872013750    1.8145423279
H        2.3230791608   -1.5900770485   -0.6216541680
H        0.2565399198    0.1362819934   -2.3288174507
13   
Iteration 16 Energy -340.96782788
C       -2.4515413926    0.2748320876   -0.0542093020
N       -2.9915724539    1.0422071695   -0.7508967030
C        1.1657621995    0.5355385811   -0.0535256471
C        0.1773687569    0.4805518008    1.0301940082
C       -0.7768046986   -0.6270494291    1.2075537080
N       -1.9704666873   -0.7110958967    0.7241783912
C        1.6924926706   -0.7229919150   -0.7482140660
C        0.8576820311   -0.0265870533   -1.4464819621
H        1.8265041259    1.4017064188    0.0113884822
H        0.1521678966    1.2808322616    1.7673931348
H       -0.4793268870   -1.4864914484    1.8173265298
H        2.3216745035   -1.5917789627   -0.6217284205
H        0.2564068770    0.1368253236   -2.3281315949
