13   
Iteration 1 Energy -340.92501873
C       -2.4689954079    1.4605027254    0.5603555232
N       -1.3254503603    1.9514792763    0.3802319362
C        0.5838829606    0.5162522712   -0.3666245812
C       -0.4190036309    0.8222724495    0.7484630737
C       -1.4019050946   -0.2680471864    1.1138875653
N       -2.6310153379    0.1171470679    1.0078075654
C        1.1452124672   -0.8632437495   -0.5987836032
C        0.2868959542   -0.4522211229   -1.4795717099
H        1.2046438044    1.3921425285   -0.5768565326
H        0.1312615803    1.1346249420    1.6502903431
H       -1.1443819727   -1.2722143563    1.4442614788
H        1.8311886409   -1.6178480890   -0.2423872845
H       -0.2674991756   -0.6110930140   -2.3923773083
