13   
IRC reactant Energy -340.94779072
C       -2.4358933607    0.5370976437    0.1878052516
N       -1.4882639150    1.3601425910    0.1077561526
C        0.8608335453    0.6015123067   -0.3373284367
C       -0.3232506526    0.5808783142    0.6311462873
C       -0.9527994713   -0.7590101607    0.9397754039
N       -2.2204949864   -0.7795257362    0.6831164201
C        1.7370492025   -0.6042076367   -0.5816972633
C        0.9223508317   -0.2969991579   -1.5444435380
H        1.2949390456    1.6022391527   -0.4051257779
H       -0.0204429095    1.0594806808    1.5760922313
H       -0.4377559871   -1.6253494518    1.3478981494
H        2.5241721969   -1.2283487831   -0.1865462654
H        0.5299915742   -0.4768876711   -2.5332372272
