13   
Iteration 0 Energy -340.94779072
C       -2.4358933607    0.5370976437    0.1878052516
N       -1.4882639150    1.3601425910    0.1077561526
C        0.8608335453    0.6015123067   -0.3373284367
C       -0.3232506526    0.5808783142    0.6311462873
C       -0.9527994713   -0.7590101607    0.9397754039
N       -2.2204949864   -0.7795257362    0.6831164201
C        1.7370492025   -0.6042076367   -0.5816972633
C        0.9223508317   -0.2969991579   -1.5444435380
H        1.2949390456    1.6022391527   -0.4051257779
H       -0.0204429095    1.0594806808    1.5760922313
H       -0.4377559871   -1.6253494518    1.3478981494
H        2.5241721969   -1.2283487831   -0.1865462654
H        0.5299915742   -0.4768876711   -2.5332372272
13   
Iteration 1 Energy -340.94780095
C       -2.4381286978    0.5412714654    0.1931872156
N       -1.4890334971    1.3623366019    0.1117722995
C        0.8596906110    0.6008273732   -0.3387662769
C       -0.3240931632    0.5796832917    0.6303750590
C       -0.9551656890   -0.7602043883    0.9363721095
N       -2.2235967383   -0.7775699106    0.6827989816
C        1.7407433188   -0.6015884854   -0.5814326030
C        0.9237503396   -0.3003496693   -1.5440897833
H        1.2909670421    1.6026293428   -0.4082705471
H       -0.0194824626    1.0563552084    1.5754777844
H       -0.4407705960   -1.6286580169    1.3407328491
H        2.5310344800   -1.2212489878   -0.1855435158
H        0.5314852788   -0.4843156137   -2.5321780967
13   
Iteration 2 Energy -340.94783405
C       -2.4463519441    0.5585672671    0.2170491621
N       -1.4917970254    1.3725084821    0.1328739582
C        0.8522689873    0.6017259628   -0.3490001710
C       -0.3266665378    0.5740121612    0.6261551593
C       -0.9635619960   -0.7664331945    0.9180207671
N       -2.2356749852   -0.7695918202    0.6817356643
C        1.7519896896   -0.5889783486   -0.5761146509
C        0.9294301896   -0.3153640081   -1.5424400594
H        1.2697627547    1.6085245281   -0.4298245313
H       -0.0124503559    1.0382619551    1.5737258239
H       -0.4508002872   -1.6456801176    1.3001854104
H        2.5530137684   -1.1892485901   -0.1719657798
H        0.5399021833   -0.5208193729   -2.5273848932
13   
Iteration 3 Energy -340.94785617
C       -2.4521966003    0.5728024116    0.2336953228
N       -1.4923819672    1.3806868786    0.1505871706
C        0.8437492168    0.6011985735   -0.3583129189
C       -0.3288364592    0.5678467771    0.6236852881
C       -0.9722680137   -0.7716876888    0.9040632608
N       -2.2465876594   -0.7624222983    0.6796065773
C        1.7628874670   -0.5768932045   -0.5730424385
C        0.9347235765   -0.3283754008   -1.5413614952
H        1.2451760679    1.6134482313   -0.4508578542
H       -0.0057742037    1.0181461869    1.5753900290
H       -0.4623641686   -1.6602610903    1.2678618439
H        2.5749083050   -1.1584511803   -0.1634237920
H        0.5481485130   -0.5524861846   -2.5234276077
13   
Iteration 4 Energy -340.94787564
C       -2.4555283766    0.5858992379    0.2465191298
N       -1.4904367520    1.3884661845    0.1689396776
C        0.8348665278    0.6032902339   -0.3681027128
C       -0.3298407587    0.5606446744    0.6218132102
C       -0.9807505829   -0.7782203809    0.8864595915
N       -2.2564941628   -0.7571578644    0.6709646810
C        1.7734327315   -0.5618805684   -0.5687245282
C        0.9364936577   -0.3424453817   -1.5368284983
H        1.2165692643    1.6215658428   -0.4772626669
H        0.0025126647    0.9920653271    1.5796871971
H       -0.4746621883   -1.6761755101    1.2319810462
H        2.5973639594   -1.1231648694   -0.1546245305
H        0.5498056676   -0.5891203736   -2.5134930416
13   
Iteration 5 Energy -340.94788237
C       -2.4554701394    0.5875691323    0.2448850841
N       -1.4891668142    1.3893688215    0.1725815650
C        0.8308875147    0.6024918432   -0.3707893095
C       -0.3305705849    0.5579041535    0.6230776134
C       -0.9834135248   -0.7808096312    0.8836621806
N       -2.2589659108   -0.7565452535    0.6673377514
C        1.7763726848   -0.5576982893   -0.5693110607
C        0.9374540385   -0.3452558971   -1.5372167147
H        1.2044755523    1.6231789762   -0.4848479681
H        0.0044365147    0.9831880461    1.5830469017
H       -0.4792044650   -1.6801440327    1.2284906253
H        2.6042161475   -1.1132984997   -0.1554146960
H        0.5518180278   -0.5962487345   -2.5132309553
13   
Iteration 6 Energy -340.94788469
C       -2.4541510504    0.5841705477    0.2391666238
N       -1.4887875667    1.3875852829    0.1709271585
C        0.8311513945    0.6031057753   -0.3697825198
C       -0.3303432003    0.5579245485    0.6244647959
C       -0.9826384499   -0.7813857159    0.8837188747
N       -2.2573287888   -0.7596746317    0.6623709305
C        1.7755096153   -0.5575737886   -0.5698988462
C        0.9350735774   -0.3444219319   -1.5364114513
H        1.2041249688    1.6239622135   -0.4845413198
H        0.0041781195    0.9829851920    1.5846092359
H       -0.4784963988   -1.6793276534    1.2322591361
H        2.6034762332   -1.1142476162   -0.1576960293
H        0.5477063880   -0.5946165481   -2.5119396606
13   
Iteration 7 Energy -340.94788529
C       -2.4536784748    0.5811410139    0.2352553274
N       -1.4894189775    1.3859655950    0.1696052386
C        0.8309057001    0.6031723422   -0.3691229039
C       -0.3308631671    0.5577697624    0.6252475041
C       -0.9817328283   -0.7825235419    0.8836687574
N       -2.2558414850   -0.7624888067    0.6589033011
C        1.7746652295   -0.5575325060   -0.5704963659
C        0.9335710014   -0.3437799929   -1.5363480491
H        1.2038636045    1.6240938238   -0.4835083686
H        0.0034760886    0.9838085597    1.5848260963
H       -0.4772728909   -1.6794325017    1.2344597185
H        2.6026764034   -1.1148819145   -0.1592691529
H        0.5455857654   -0.5930338774   -2.5118590286
13   
Iteration 8 Energy -340.94788548
C       -2.4542670422    0.5783068286    0.2333423121
N       -1.4908200267    1.3842017621    0.1694555746
C        0.8299321656    0.6028455960   -0.3694354937
C       -0.3317456439    0.5570644486    0.6254848316
C       -0.9817983250   -0.7838517075    0.8827664606
N       -2.2556099335   -0.7654344776    0.6563396363
C        1.7746063318   -0.5568743734   -0.5711780189
C        0.9331814343   -0.3438527632   -1.5369049881
H        1.2021400951    1.6240683419   -0.4836195367
H        0.0029448890    0.9837664179    1.5844946495
H       -0.4768676611   -1.6803358322    1.2338855044
H        2.6031926104   -1.1136006127   -0.1602419396
H        0.5455530180   -0.5930279158   -2.5125647959
