13   
IRC reactant Energy -340.92501853
C       -2.6999419983    1.0435825879   -1.1828412827
N       -1.5956847786    1.4529649927   -1.6235497414
C        0.4724400473    0.0629673195   -1.3917731775
C       -0.6159185540    0.8572937439   -0.6655738687
C       -1.5183889869    0.0923085813    0.2771913994
N       -2.7684783610    0.2099117144   -0.0289726590
C        1.1602966285   -1.1271393757   -0.7731946480
C        0.3227657927   -1.3967977276   -1.7256661631
H        1.0284538126    0.7095803085   -2.0769526571
H       -0.1481266708    1.6947552348   -0.1238904293
H       -1.1928089206   -0.4933320517    1.1344254181
H        1.8855742807   -1.4576315679   -0.0439785343
H       -0.1627117288   -2.1134350431   -2.3710616515
13   
IRC product Energy -340.97576481
C       -3.0356507363    1.6308869938   -0.4353727937
N       -3.4108632278    2.7136142445   -0.6967763322
C        0.8315391406   -0.0903551275   -1.2929539810
C       -0.4786328482    0.5139068005   -1.0121129702
C       -1.5329075403   -0.1240399702   -0.3629631927
N       -2.7348137840    0.3912816597   -0.0888571685
C        1.4266182717   -1.1664000778   -0.3841622158
C        0.9868702578   -1.5948981240   -1.5160175060
H        1.5200180792    0.5781419716   -1.8134380332
H       -0.6333802578    1.5413261758   -1.3379879511
H       -1.4043092878   -1.1515088841   -0.0278681679
H        1.8623788085   -1.3213783129    0.5915056309
H        0.7706036869   -2.3855486321   -2.2188333137
