13   
Iteration 37 Energy -340.92501853
C       -2.6999419983    1.0435825879   -1.1828412827
N       -1.5956847786    1.4529649927   -1.6235497414
C        0.4724400473    0.0629673195   -1.3917731775
C       -0.6159185540    0.8572937439   -0.6655738687
C       -1.5183889869    0.0923085813    0.2771913994
N       -2.7684783610    0.2099117144   -0.0289726590
C        1.1602966285   -1.1271393757   -0.7731946480
C        0.3227657927   -1.3967977276   -1.7256661631
H        1.0284538126    0.7095803085   -2.0769526571
H       -0.1481266708    1.6947552348   -0.1238904293
H       -1.1928089206   -0.4933320517    1.1344254181
H        1.8855742807   -1.4576315679   -0.0439785343
H       -0.1627117288   -2.1134350431   -2.3710616515
13   
Iteration 36 Energy -340.92501852
C       -2.6999856459    1.0434395217   -1.1828746831
N       -1.5957574608    1.4529718183   -1.6235343877
C        0.4724507715    0.0629644829   -1.3917776815
C       -0.6159217206    0.8573067650   -0.6655986748
C       -1.5183646302    0.0923478695    0.2772148706
N       -2.7684605516    0.2098929916   -0.0289081643
C        1.1602385823   -1.1271760700   -0.7731872040
C        0.3227731098   -1.3967828216   -1.7257309215
H        1.0285506705    0.7095822314   -2.0768828004
H       -0.1481209828    1.6947808844   -0.1239289433
H       -1.1927351168   -0.4931942740    1.1344968894
H        1.8854590984   -1.4577103261   -0.0439344199
H       -0.1626555613   -2.1133943559   -2.3711918749
13   
Iteration 35 Energy -340.92501867
C       -2.6996348708    1.0455400971   -1.1826399881
N       -1.5949825453    1.4542826082   -1.6229107275
C        0.4720409715    0.0627134727   -1.3920568710
C       -0.6158704772    0.8570227563   -0.6652453194
C       -1.5190547597    0.0917341272    0.2765741714
N       -2.7690089899    0.2106065027   -0.0297467815
C        1.1612260876   -1.1264388697   -0.7733601189
C        0.3229074097   -1.3974425632   -1.7247666196
H        1.0268828002    0.7092225677   -2.0782896694
H       -0.1476552892    1.6937327628   -0.1227806722
H       -1.1941190067   -0.4951310762    1.1332064637
H        1.8874797158   -1.4559464069   -0.0446644701
H       -0.1627404834   -2.1148672616   -2.3691573925
13   
Iteration 34 Energy -340.92501838
C       -2.6999352351    1.0426166420   -1.1829434554
N       -1.5958695282    1.4519333529   -1.6241239232
C        0.4726978993    0.0631411535   -1.3913997836
C       -0.6158651303    0.8574187665   -0.6656133006
C       -1.5179707059    0.0926016013    0.2776191583
N       -2.7681142579    0.2094371471   -0.0286932560
C        1.1597711825   -1.1274625762   -0.7731336205
C        0.3225967512   -1.3964653104   -1.7260984814
H        1.0291263085    0.7098552718   -2.0761577585
H       -0.1485031374    1.6955316201   -0.1246116288
H       -1.1921673325   -0.4924659407    1.1351572295
H        1.8846006570   -1.4585708055   -0.0437449328
H       -0.1628969085   -2.1125422053   -2.3720942422
13   
Iteration 33 Energy -340.92501364
C       -2.7018561763    1.0264770418   -1.1845350843
N       -1.6011529212    1.4400180080   -1.6301451169
C        0.4759776731    0.0652592220   -1.3883195607
C       -0.6161476182    0.8595202670   -0.6680155243
C       -1.5123905814    0.0975240306    0.2831437670
N       -2.7635293331    0.2035768903   -0.0225115369
C        1.1519594852   -1.1332332762   -0.7719216293
C        0.3212995942   -1.3911349346   -1.7335427331
H        1.0414878852    0.7130245441   -2.0645975695
H       -0.1527487559    1.7044323421   -0.1342157782
H       -1.1816998687   -0.4773391194    1.1457453810
H        1.8689755429   -1.4727900098   -0.0387213514
H       -0.1627043632   -2.1003062889   -2.3882012586
13   
Iteration 32 Energy -340.92500053
C       -2.7039369755    1.0069094704   -1.1867529189
N       -1.6066455898    1.4240698248   -1.6375483869
C        0.4803933572    0.0678746514   -1.3837635626
C       -0.6158232462    0.8619661366   -0.6699794882
C       -1.5053668615    0.1034107489    0.2899950402
N       -2.7575917733    0.1961971841   -0.0154753721
C        1.1422604499   -1.1398208215   -0.7707973896
C        0.3194180823   -1.3848245139   -1.7423298023
H        1.0561020362    0.7168901118   -2.0501927710
H       -0.1584339524    1.7164460222   -0.1465868850
H       -1.1691660714   -0.4594423850    1.1583938303
H        1.8497325110   -1.4898432501   -0.0332597624
H       -0.1634714041   -2.0848044625   -2.4075405268
13   
Iteration 31 Energy -340.92497867
C       -2.7054480516    0.9865750078   -1.1877279545
N       -1.6131287453    1.4085146823   -1.6455599387
C        0.4845671992    0.0704052826   -1.3797452259
C       -0.6166448878    0.8642979846   -0.6734241807
C       -1.4985139150    0.1099629279    0.2971873260
N       -2.7517657620    0.1889284646   -0.0074004873
C        1.1323317012   -1.1470061648   -0.7696512891
C        0.3181996259   -1.3778509232   -1.7518921400
H        1.0715153504    0.7205947286   -2.0351321488
H       -0.1641658775    1.7268104473   -0.1590210465
H       -1.1564744824   -0.4394953287    1.1719181409
H        1.8294120928   -1.5077839874   -0.0274266305
H       -0.1624136852   -2.0689244045   -2.4279624201
13   
Iteration 30 Energy -340.92494640
C       -2.7089018457    0.9656272585   -1.1893082128
N       -1.6195675205    1.3899203701   -1.6528320749
C        0.4892446869    0.0727489224   -1.3750249974
C       -0.6164824069    0.8663751655   -0.6758878984
C       -1.4912787177    0.1170234739    0.3046223041
N       -2.7456852632    0.1829452153    0.0019670746
C        1.1216622079   -1.1546441104   -0.7686528938
C        0.3174620432   -1.3709962027   -1.7621701892
H        1.0877752106    0.7243527365   -2.0184371054
H       -0.1706726315    1.7392775046   -0.1735588717
H       -1.1430187650   -0.4190809246    1.1852443232
H        1.8076145012   -1.5266456886   -0.0216306318
H       -0.1606809366   -2.0518750032   -2.4501688218
13   
Iteration 29 Energy -340.92490442
C       -2.7103486226    0.9454751579   -1.1875289400
N       -1.6270543456    1.3722855422   -1.6616819653
C        0.4940764211    0.0746797308   -1.3708058056
C       -0.6180468512    0.8672329310   -0.6805029206
C       -1.4842915848    0.1243564720    0.3127933371
N       -2.7400486208    0.1776055950    0.0129890901
C        1.1105352473   -1.1621443514   -0.7678353935
C        0.3181270044   -1.3641190701   -1.7736979216
H        1.1046757442    0.7277706784   -2.0012444153
H       -0.1782093579    1.7491992131   -0.1889091821
H       -1.1298143874   -0.3969470066    1.1997669119
H        1.7838245991   -1.5453886948   -0.0150069884
H       -0.1559546830   -2.0349774802   -2.4741738021
13   
Iteration 28 Energy -340.92484266
C       -2.7169337786    0.9238659069   -1.1855621151
N       -1.6368387239    1.3483125979   -1.6702741930
C        0.4993702615    0.0762520494   -1.3663340912
C       -0.6194441258    0.8678075637   -0.6856570767
C       -1.4772442308    0.1341479078    0.3219421618
N       -2.7345339018    0.1762423793    0.0283643386
C        1.0987191580   -1.1724616132   -0.7672458171
C        0.3213526875   -1.3565180784   -1.7880174785
H        1.1245339903    0.7315964635   -1.9799025155
H       -0.1870007359    1.7606981229   -0.2071709513
H       -1.1151264062   -0.3705623888    1.2156285996
H        1.7572517917   -1.5686350308   -0.0080982438
H       -0.1466354236   -2.0157171630   -2.5035106130
13   
Iteration 27 Energy -340.92474878
C       -2.7232103086    0.9054544153   -1.1766600809
N       -1.6491660210    1.3216732083   -1.6807619323
C        0.5058651872    0.0758863767   -1.3613736417
C       -0.6231965034    0.8634580436   -0.6936916443
C       -1.4706170195    0.1449188181    0.3333909622
N       -2.7311328777    0.1815674979    0.0511300416
C        1.0853477741   -1.1833064738   -0.7673038795
C        0.3292789262   -1.3502006976   -1.8066065607
H        1.1468730182    0.7350768412   -1.9541796286
H       -0.2006382772    1.7702109086   -0.2327755630
H       -1.0997085228   -0.3409879229    1.2337388273
H        1.7252361869   -1.5928904834    0.0005903848
H       -0.1274609997   -1.9958318149   -2.5413352801
13   
Iteration 26 Energy -340.92462561
C       -2.7353373137    0.8972295558   -1.1639026649
N       -1.6649965158    1.2978678475   -1.6891610045
C        0.5100689883    0.0744821792   -1.3601060493
C       -0.6284200366    0.8586091539   -0.7040570284
C       -1.4658904915    0.1548614462    0.3418588759
N       -2.7293308634    0.1939618340    0.0757580104
C        1.0746575700   -1.1939046456   -0.7667088985
C        0.3415576076   -1.3461061359   -1.8244462602
H        1.1663845007    0.7372621614   -1.9317374787
H       -0.2112262036    1.7737784024   -0.2537574239
H       -1.0857284393   -0.3174123887    1.2458333458
H        1.6963834901   -1.6133061459    0.0107296989
H       -0.1006517301   -1.9822945470   -2.5761411177
13   
Iteration 25 Energy -340.92448724
C       -2.7444280723    0.8978170898   -1.1487216305
N       -1.6784353308    1.2839573653   -1.6929467735
C        0.5128540033    0.0722762017   -1.3599000486
C       -0.6332569114    0.8518401438   -0.7139120686
C       -1.4613143356    0.1599748839    0.3466498338
N       -2.7284491234    0.2070291047    0.0975808617
C        1.0645432911   -1.2003086605   -0.7646951548
C        0.3533147260   -1.3452456578   -1.8380620897
H        1.1804871584    0.7381561630   -1.9146507054
H       -0.2226953918    1.7756572671   -0.2755749680
H       -1.0716325403   -0.3058885656    1.2498262345
H        1.6702809197   -1.6252695568    0.0222787402
H       -0.0737978303   -1.9749670615   -2.6037102263
13   
Iteration 24 Energy -340.92435068
C       -2.7536215415    0.9013107404   -1.1356533927
N       -1.6913711767    1.2759422503   -1.6960889022
C        0.5139961269    0.0711429711   -1.3629270324
C       -0.6374358464    0.8486550628   -0.7225013537
C       -1.4574405885    0.1627353823    0.3481393316
N       -2.7267279498    0.2161370713    0.1132091111
C        1.0568043567   -1.2040449762   -0.7624531044
C        0.3629863813   -1.3450217833   -1.8474614169
H        1.1912620733    0.7378628148   -1.9047073847
H       -0.2272180371    1.7745596464   -0.2867447578
H       -1.0611052673   -0.3005998491    1.2497127977
H        1.6497358269   -1.6311553284    0.0330093863
H       -0.0523937951   -1.9724952852   -2.6213712773
13   
Iteration 23 Energy -340.92422571
C       -2.7594656006    0.9054873551   -1.1250197187
N       -1.7000552512    1.2730457651   -1.6955736067
C        0.5143918535    0.0702176438   -1.3644545004
C       -0.6408432965    0.8459664246   -0.7298484584
C       -1.4539743716    0.1636464446    0.3485495642
N       -2.7249615650    0.2223991251    0.1248814753
C        1.0499847112   -1.2062948540   -0.7598849698
C        0.3700507061   -1.3455325425   -1.8537916058
H        1.1981311833    0.7375988213   -1.8972093257
H       -0.2323765919    1.7748168154   -0.2989448744
H       -1.0507487075   -0.3001697059    1.2468761748
H        1.6326775513   -1.6344109846    0.0425850541
H       -0.0353400584   -1.9717415907   -2.6340032035
13   
Iteration 22 Energy -340.92412644
C       -2.7637081227    0.9080935470   -1.1177175176
N       -1.7074834875    1.2713355763   -1.6981860797
C        0.5147095049    0.0695560414   -1.3674753490
C       -0.6417599118    0.8457815304   -0.7318105282
C       -1.4518560024    0.1644225855    0.3484583558
N       -2.7241924788    0.2261596502    0.1326144052
C        1.0455258948   -1.2071522798   -0.7579698785
C        0.3745017831   -1.3462995775   -1.8571568261
H        1.2031650147    0.7368945808   -1.8941185770
H       -0.2335562797    1.7762827680   -0.3040626409
H       -1.0451602820   -0.3024089890    1.2435987751
H        1.6219114184   -1.6355409903    0.0488731039
H       -0.0246264886   -1.9720957258   -2.6408852381
13   
Iteration 21 Energy -340.92395310
C       -2.7647314695    0.9088619425   -1.1128096625
N       -1.7122265985    1.2717211505   -1.7002919826
C        0.5129326898    0.0692198213   -1.3707042380
C       -0.6395987428    0.8443123227   -0.7275610735
C       -1.4531589659    0.1655173277    0.3472476667
N       -2.7238782983    0.2269284931    0.1375916184
C        1.0438924974   -1.2081602852   -0.7566131382
C        0.3755717216   -1.3460466295   -1.8579745105
H        1.2105095704    0.7330083486   -1.8893609542
H       -0.2405289096    1.7834282704   -0.3094044445
H       -1.0384289405   -0.3040791645    1.2362499625
H        1.6173745407   -1.6378886047    0.0513615137
H       -0.0202585322   -1.9717942757   -2.6435687527
13   
Iteration 20 Energy -340.92334731
C       -2.7883456826    0.9270828331   -1.0869754772
N       -1.7431963577    1.2699024304   -1.7020390935
C        0.5249932348    0.0686569712   -1.3571247506
C       -0.6572140788    0.8487615532   -0.7605795563
C       -1.4404430374    0.1666949279    0.3345966526
N       -2.7174127826    0.2307706262    0.1515788213
C        1.0444530746   -1.2216422028   -0.7466182647
C        0.3875064820   -1.3433248097   -1.8557992604
H        1.2301648112    0.7315728804   -1.8664594321
H       -0.2577637035    1.7855999799   -0.3364184098
H       -1.0125796211   -0.3072468932    1.2161405306
H        1.6057862681   -1.6636400274    0.0636603422
H       -0.0084780446   -1.9581595519   -2.6498000974
13   
Iteration 19 Energy -340.92152470
C       -2.8101722251    0.9354607643   -1.0741748356
N       -1.7880540732    1.2816586809   -1.7236010418
C        0.5436277112    0.0675501578   -1.3392487968
C       -0.6502214937    0.8477245018   -0.7641603182
C       -1.4334213909    0.1659548364    0.3273936088
N       -2.7121397308    0.2297176622    0.1545038492
C        1.0569872714   -1.2363466142   -0.7436824223
C        0.3919211335   -1.3413515284   -1.8487588662
H        1.2538490645    0.7262415090   -1.8464476630
H       -0.2758069804    1.8025993524   -0.3613297916
H       -1.0042972508   -0.3133048607    1.2056545489
H        1.6164109579   -1.6883455490    0.0623990735
H       -0.0212124310   -1.9425301955   -2.6443853400
13   
Iteration 18 Energy -340.91879546
C       -2.8218198380    0.9357625337   -1.0727982717
N       -1.8229211227    1.2884618600   -1.7489619256
C        0.5544719065    0.0674216302   -1.3315614236
C       -0.6376353418    0.8469404666   -0.7601995386
C       -1.4316772030    0.1637297158    0.3254299274
N       -2.7091370938    0.2288303842    0.1502181732
C        1.0636944780   -1.2394592586   -0.7446187509
C        0.3940250554   -1.3407700185   -1.8470862554
H        1.2584080534    0.7264377704   -1.8472704475
H       -0.2612920654    1.7974068154   -0.3514067967
H       -1.0126221691   -0.3101556951    1.2122793943
H        1.6247765904   -1.6921252282    0.0600139688
H       -0.0308006874   -1.9374522589   -2.6398760488
13   
Iteration 17 Energy -340.91569509
C       -2.8266326960    0.9354792210   -1.0771344243
N       -1.8475689008    1.2885837033   -1.7678111176
C        0.5616051986    0.0672398471   -1.3272553735
C       -0.6306044509    0.8492154575   -0.7639797802
C       -1.4270889744    0.1623871899    0.3249602225
N       -2.7097373531    0.2291084989    0.1441236414
C        1.0671147050   -1.2383924996   -0.7455791385
C        0.3956642455   -1.3413885147   -1.8469611135
H        1.2475090037    0.7349896414   -1.8560126759
H       -0.2305420474    1.7782234471   -0.3269192117
H       -1.0266939582   -0.3041508838    1.2244062670
H        1.6304562833   -1.6885648816    0.0586621701
H       -0.0360104927   -1.9377015093   -2.6363374610
13   
Iteration 16 Energy -340.91224315
C       -2.8255603875    0.9366569859   -1.0843989758
N       -1.8637595722    1.2857950288   -1.7785092166
C        0.5657607027    0.0665515196   -1.3249742029
C       -0.6270549034    0.8517850394   -0.7715331394
C       -1.4205970576    0.1626073193    0.3245565568
N       -2.7126901804    0.2302443321    0.1386919220
C        1.0685668981   -1.2369604555   -0.7463338223
C        0.3965130487   -1.3427811713   -1.8470868155
H        1.2331325003    0.7459243409   -1.8649026048
H       -0.2047966454    1.7613255460   -0.3036639570
H       -1.0374134180   -0.3014761573    1.2374260874
H        1.6340714181   -1.6847573614    0.0585727330
H       -0.0387018408   -1.9398862493   -2.6336825601
13   
Iteration 15 Energy -340.91133094
C       -2.8265536414    0.9371030434   -1.0856436018
N       -1.8706073524    1.2880771004   -1.7818786531
C        0.5669212398    0.0665487737   -1.3236152820
C       -0.6231030236    0.8506827777   -0.7714537143
C       -1.4186079901    0.1625283453    0.3244161072
N       -2.7119379948    0.2305558504    0.1383080377
C        1.0695622360   -1.2386019737   -0.7461418801
C        0.3966796597   -1.3428622338   -1.8463684059
H        1.2337184531    0.7463964357   -1.8637816982
H       -0.2077275048    1.7619867565   -0.3032480457
H       -1.0358218520   -0.3012654042    1.2381301310
H        1.6347006121   -1.6873994747    0.0586605566
H       -0.0397522791   -1.9387212795   -2.6332215465
13   
Iteration 14 Energy -340.91103986
C       -2.8284349408    0.9393313510   -1.0830372106
N       -1.8775903769    1.2917210811   -1.7825686633
C        0.5693849151    0.0667337462   -1.3217974896
C       -0.6193653841    0.8502527248   -0.7684569389
C       -1.4166814698    0.1673914940    0.3259726189
N       -2.7110035659    0.2313602738    0.1403090525
C        1.0707873154   -1.2403027146   -0.7435958758
C        0.3962836636   -1.3431265867   -1.8426816181
H        1.2373462660    0.7457813396   -1.8610233809
H       -0.2140319927    1.7718882209   -0.3162708057
H       -1.0314815731   -0.3186531599    1.2253222884
H        1.6338424038   -1.6898321698    0.0619240293
H       -0.0415846982   -1.9375168833   -2.6299340015
13   
Iteration 13 Energy -340.91085906
C       -2.8322567794    0.9397808981   -1.0802351320
N       -1.8840506820    1.2944888288   -1.7857155534
C        0.5705258849    0.0669817793   -1.3205763062
C       -0.6178915817    0.8505018768   -0.7665415026
C       -1.4176738845    0.1702007823    0.3255813067
N       -2.7096492391    0.2312255314    0.1416855389
C        1.0716827387   -1.2413470146   -0.7420807586
C        0.3959332348   -1.3427439810   -1.8404364198
H        1.2430528722    0.7426379854   -1.8582341913
H       -0.2167026006    1.7776675535   -0.3213316656
H       -1.0270585770   -0.3264465024    1.2168958896
H        1.6344260691   -1.6918368063    0.0631133854
H       -0.0428668927   -1.9360822140   -2.6279625863
13   
Iteration 12 Energy -340.91062944
C       -2.8343232533    0.9404859897   -1.0779034151
N       -1.8905528425    1.2976291948   -1.7868004309
C        0.5722186311    0.0667627118   -1.3194297357
C       -0.6143914743    0.8492157682   -0.7627127436
C       -1.4168342219    0.1710879119    0.3244908139
N       -2.7086601035    0.2305552175    0.1432525458
C        1.0725275932   -1.2439752575   -0.7410026626
C        0.3955086339   -1.3427239264   -1.8385099839
H        1.2494078099    0.7402855171   -1.8538360135
H       -0.2246520540    1.7892544619   -0.3317824732
H       -1.0226881831   -0.3333818522    1.2111634594
H        1.6339613079   -1.6962647769    0.0644034388
H       -0.0440512807   -1.9339022427   -2.6271707946
13   
Iteration 11 Energy -340.91012689
C       -2.8380190059    0.9406330784   -1.0735433335
N       -1.9008347639    1.3030018802   -1.7905634088
C        0.5749444159    0.0671464070   -1.3176873844
C       -0.6077519625    0.8474935685   -0.7545982125
C       -1.4168060406    0.1707669384    0.3233264157
N       -2.7062023393    0.2293236663    0.1455852211
C        1.0742396295   -1.2471034708   -0.7399446445
C        0.3949740151   -1.3418970682   -1.8361007177
H        1.2599544741    0.7355313253   -1.8473343017
H       -0.2361258902    1.7986764665   -0.3458580978
H       -1.0186844190   -0.3369609975    1.2025044012
H        1.6340544895   -1.7015651708    0.0646643296
H       -0.0462720402   -1.9300179060   -2.6262882620
13   
Iteration 10 Energy -340.90927819
C       -2.8408793962    0.9405297955   -1.0698624301
N       -1.9120950730    1.3090406048   -1.7952633405
C        0.5774760730    0.0669870926   -1.3162262308
C       -0.5986076851    0.8431119016   -0.7442595917
C       -1.4170234302    0.1694033069    0.3213636978
N       -2.7040379002    0.2279130785    0.1471598053
C        1.0757069651   -1.2512569908   -0.7396164751
C        0.3942150612   -1.3416409800   -1.8342617144
H        1.2715863217    0.7303193654   -1.8404907561
H       -0.2502363149    1.8188143403   -0.3623214078
H       -1.0137527921   -0.3436540555    1.1987866059
H        1.6339937811   -1.7084525262    0.0651421544
H       -0.0488750478   -1.9260862156   -2.6259883122
13   
Iteration 9 Energy -340.90808855
C       -2.8422777510    0.9411480088   -1.0647400702
N       -1.9236483175    1.3162958309   -1.7996839849
C        0.5808346074    0.0675621645   -1.3141054012
C       -0.5871640117    0.8396452507   -0.7310355277
C       -1.4164952260    0.1679222062    0.3213320416
N       -2.7013408855    0.2273082858    0.1496590553
C        1.0778924628   -1.2547603609   -0.7391711585
C        0.3940596942   -1.3406454035   -1.8323222055
H        1.2827524958    0.7253334099   -1.8331326742
H       -0.2676108862    1.8274458535   -0.3830129783
H       -1.0123558228   -0.3466508863    1.1914050661
H        1.6343212080   -1.7141356921    0.0646039545
H       -0.0514970049   -1.9214399503   -2.6256341123
13   
Iteration 8 Energy -340.90683735
C       -2.8432191273    0.9410500727   -1.0613108943
N       -1.9336777287    1.3221159511   -1.8043389601
C        0.5831627257    0.0673534650   -1.3126334755
C       -0.5775436356    0.8345490923   -0.7197221981
C       -1.4170010774    0.1662534790    0.3200474218
N       -2.6997941270    0.2264898698    0.1507280191
C        1.0792263270   -1.2583625150   -0.7393521012
C        0.3937600247   -1.3404834597   -1.8312905332
H        1.2924211823    0.7208434841   -1.8276390150
H       -0.2809332520    1.8466567294   -0.4000811132
H       -1.0098321619   -0.3533573309    1.1908984500
H        1.6345726607   -1.7201020917    0.0646090134
H       -0.0536712479   -1.9179780289   -2.6257526089
13   
Iteration 7 Energy -340.90567440
C       -2.8427155422    0.9421124056   -1.0575713412
N       -1.9419154384    1.3279551634   -1.8072853032
C        0.5854734233    0.0678602460   -1.3106600824
C       -0.5675147943    0.8318462437   -0.7094237573
C       -1.4159864062    0.1654707490    0.3205221601
N       -2.6977983166    0.2270274680    0.1525002444
C        1.0810586944   -1.2608503533   -0.7391713033
C        0.3939495704   -1.3397334319   -1.8300580029
H        1.2996368273    0.7175211860   -1.8222140137
H       -0.2967248203    1.8501712922   -0.4166055070
H       -1.0094833191   -0.3555541045    1.1856644517
H        1.6350090313   -1.7242017073    0.0640019206
H       -0.0555183469   -1.9145964397   -2.6255374608
13   
Iteration 6 Energy -340.90473995
C       -2.8425450586    0.9424692815   -1.0551911178
N       -1.9482796707    1.3320100699   -1.8098906699
C        0.5871494695    0.0678544628   -1.3094592248
C       -0.5605858213    0.8288481430   -0.7015901268
C       -1.4158994326    0.1645710084    0.3201363599
N       -2.6968378981    0.2269517504    0.1533074806
C        1.0821251023   -1.2630467735   -0.7393056474
C        0.3939921830   -1.3394853982   -1.8294629674
H        1.3053320484    0.7150441721   -1.8186174079
H       -0.3067817744    1.8591626913   -0.4290164968
H       -1.0086526861   -0.3592257785    1.1850742229
H        1.6352596678   -1.7279126824    0.0638444836
H       -0.0568055666   -1.9122122296   -2.6256668834
13   
Iteration 5 Energy -340.90404168
C       -2.8421173954    0.9430088754   -1.0533047506
N       -1.9529099601    1.3351262319   -1.8113993635
C        0.5884981435    0.0680017725   -1.3084462158
C       -0.5552734526    0.8270671297   -0.6955952976
C       -1.4154593728    0.1640016888    0.3201891610
N       -2.6960494017    0.2270888818    0.1541425502
C        1.0830509559   -1.2645342299   -0.7393226076
C        0.3941202066   -1.3391385977   -1.8289337570
H        1.3092898415    0.7134094583   -1.8157349973
H       -0.3148621345    1.8626805963   -0.4387813131
H       -1.0085627283   -0.3609690787    1.1835183156
H        1.6354590967   -1.7304048187    0.0635658782
H       -0.0577132363   -1.9103091926   -2.6257355977
13   
Iteration 4 Energy -340.90354131
C       -2.8418823953    0.9433445431   -1.0520045004
N       -1.9562532472    1.3373209770   -1.8125727892
C        0.5894297720    0.0680799960   -1.3077409478
C       -0.5515682800    0.8257248110   -0.6913501710
C       -1.4152390294    0.1635912278    0.3201285253
N       -2.6955151680    0.2271484214    0.1546640246
C        1.0836821604   -1.2656023376   -0.7393610506
C        0.3941957336   -1.3389102830   -1.8285866030
H        1.3121337481    0.7122266431   -1.8137335958
H       -0.3203766502    1.8656557421   -0.4456231768
H       -1.0083966179   -0.3623712864    1.1827465141
H        1.6356151843   -1.7322149896    0.0633953781
H       -0.0583546478   -1.9089647479   -2.6257996027
13   
Iteration 3 Energy -340.90318780
C       -2.8417536191    0.9435552135   -1.0510520711
N       -1.9585499523    1.3388934250   -1.8133918983
C        0.5900539757    0.0681325612   -1.3072582033
C       -0.5489901648    0.8247419389   -0.6883047519
C       -1.4151624366    0.1632836715    0.3200370814
N       -2.6951284120    0.2271658524    0.1550329477
C        1.0841102071   -1.2663705337   -0.7393967890
C        0.3942407700   -1.3387408748   -1.8283557195
H        1.3142491999    0.7113091529   -1.8122759795
H       -0.3243518662    1.8679938935   -0.4505698682
H       -1.0081736564   -0.3634025593    1.1822897338
H        1.6357156640   -1.7335397228    0.0632791790
H       -0.0587891466   -1.9079933013   -2.6258716562
13   
Iteration 2 Energy -340.90283766
C       -2.8417204198    0.9436715705   -1.0498653048
N       -1.9599610563    1.3405435764   -1.8136594137
C        0.5904851093    0.0681305151   -1.3069450122
C       -0.5465855303    0.8235347919   -0.6849857278
C       -1.4154627258    0.1628417114    0.3197838124
N       -2.6946949146    0.2270245510    0.1555361360
C        1.0844329790   -1.2673017875   -0.7394940899
C        0.3942684978   -1.3385662092   -1.8282393356
H        1.3170358970    0.7099690608   -1.8104776096
H       -0.3294874648    1.8723234879   -0.4568570519
H       -1.0072882900   -0.3649646415    1.1822227213
H        1.6355088042   -1.7352574832    0.0633109489
H       -0.0590603232   -1.9069204264   -2.6261680681
13   
Iteration 1 Energy -340.89993495
C       -2.8442434981    0.9432593055   -1.0558758702
N       -2.0207030558    1.3467446103   -1.8581769522
C        0.5982189875    0.0674563362   -1.2971547192
C       -0.5289467667    0.8212113844   -0.6808583226
C       -1.4107316104    0.1653458613    0.3166185783
N       -2.6929934158    0.2319796805    0.1469956895
C        1.0897944801   -1.2665890866   -0.7388925791
C        0.3929576623   -1.3392935640   -1.8234807199
H        1.3098840238    0.7131142373   -1.8169454515
H       -0.2900475829    1.8534230897   -0.4135381517
H       -1.0200390172   -0.3635977934    1.1857899153
H        1.6539796981   -1.7312845298    0.0565083099
H       -0.0696593425   -1.9067408140   -2.6168277218
13   
Iteration 0 Energy -340.89946860
C       -2.8296554199    0.9536708139   -1.0466799510
N       -2.0376541809    1.3523384331   -1.8688070018
C        0.6068444387    0.0655017612   -1.2904351983
C       -0.5018940118    0.8049119134   -0.6463265881
C       -1.4112652939    0.1661627368    0.3270685522
N       -2.6967017684    0.2475585072    0.1534560273
C        1.1032244733   -1.2728467140   -0.7462856757
C        0.4000667797   -1.3398593340   -1.8267560888
H        1.3164462107    0.7153701876   -1.8074105346
H       -0.3310681330    1.8680134466   -0.4691257039
H       -1.0388858806   -0.3821547527    1.1926611205
H        1.6603151678   -1.7422034370    0.0514715559
H       -0.0723018191   -1.9014348449   -2.6186685089
13   
Iteration 1 Energy -340.90010123
C       -2.8143733268    0.9554060820   -1.0359024863
N       -2.0637477209    1.3690998428   -1.8747438718
C        0.6146147188    0.0688145144   -1.2816830266
C       -0.4737044334    0.8056099644   -0.6204158352
C       -1.3963634694    0.1636442728    0.3266817951
N       -2.6867409311    0.2421727380    0.1532265174
C        1.1029598827   -1.2745520887   -0.7427082094
C        0.3976074795   -1.3360800199   -1.8217536722
H        1.3292126382    0.7146007316   -1.7965611477
H       -0.3688798466    1.8849417148   -0.5282572242
H       -1.0320716763   -0.4177125306    1.1741600721
H        1.6446179319   -1.7485166837    0.0630067143
H       -0.0856606840   -1.8923998207   -2.6108876208
13   
Iteration 2 Energy -340.90370304
C       -2.7982058252    0.9567208875   -1.0328499579
N       -2.1136445689    1.3831550696   -1.9051106649
C        0.6276330498    0.0692071811   -1.2726514533
C       -0.4490950486    0.7919728198   -0.5928818507
C       -1.3940428977    0.1596122884    0.3271033479
N       -2.6900059521    0.2506499537    0.1491658336
C        1.1095387617   -1.2786689679   -0.7447847915
C        0.3996392692   -1.3357189369   -1.8207353815
H        1.3345465359    0.7162519877   -1.7960343989
H       -0.3768259087    1.8791732988   -0.5394598937
H       -1.0491831143   -0.4140632640    1.1879893394
H        1.6592620058   -1.7567113011    0.0530876363
H       -0.0921457443   -1.8865522996   -2.6086757600
13   
Iteration 3 Energy -340.90944658
C       -2.7765074240    0.9643092448   -1.0233283166
N       -2.1628856040    1.4045671165   -1.9282363494
C        0.6374708274    0.0693926008   -1.2605185037
C       -0.4204915482    0.7926106588   -0.5639862626
C       -1.3837292629    0.1686682817    0.3379990623