13   
Iteration 0 Energy -340.89548863
C       -2.2077100871    1.1315528215    0.1417146246
N       -1.3228595664    1.9065534433   -0.1224799182
C        0.9929956628    0.3165916637   -0.4124869971
C        0.0313253720    0.5802914970    0.6843184879
C       -1.0176893857   -0.4017163229    1.0583126548
N       -2.2539512821   -0.1227735326    0.7761972826
C        1.5271142893   -1.0899257370   -0.5888688111
C        0.7364097685   -0.6844984304   -1.5283654359
H        1.6186757661    1.1863713468   -0.6302585015
H        0.3971798171    1.1885366270    1.5164301343
H       -0.8146476045   -1.3419570379    1.5825039194
H        2.0734294960   -1.8504923559   -0.0563241448
H        0.2441230414   -0.8714502831   -2.4746138591
13   
Iteration 1 Energy -340.89563669
C       -2.2211571756    1.1293701703    0.1447663734
N       -1.3469924356    1.9134507616   -0.1230565476
C        0.9992086797    0.3146040359   -0.4113012756
C        0.0367208713    0.5826953955    0.6842299375
C       -1.0166145282   -0.3960704601    1.0549814022
N       -2.2553214363   -0.1252344599    0.7773649582
C        1.5289812747   -1.0950737159   -0.5886416658
C        0.7393416909   -0.6845682104   -1.5268649452
H        1.6289543685    1.1814528983   -0.6283311853
H        0.4037304474    1.1893845342    1.5165273327
H       -0.8112217294   -1.3357217560    1.5777511495
H        2.0726357540   -1.8597580022   -0.0583460522
H        0.2460876522   -0.8675025534   -2.4729117172
13   
Iteration 2 Energy -340.89619786
C       -2.2351061400    1.1274092273    0.1505179848
N       -1.3702970188    1.9207856894   -0.1159491931
C        1.0060094936    0.3112034477   -0.4080805860
C        0.0385425015    0.5887029199    0.6826914251
C       -1.0190441394   -0.3880866805    1.0468790086
N       -2.2601336857   -0.1294243347    0.7743053831
C        1.5377528509   -1.1036882044   -0.5877238526
C        0.7417860147   -0.6869604416   -1.5180149766
H        1.6408247800    1.1733653784   -0.6266842168
H        0.4046043977    1.1972536705    1.5125066255
H       -0.8062476888   -1.3254145818    1.5663471992
H        2.0837329407   -1.8768158568   -0.0695665145
H        0.2421272684   -0.8618909063   -2.4608179621
13   
Iteration 3 Energy -340.89694437
C       -2.2431170583    1.1357714119    0.1619750284
N       -1.3785547244    1.9288370017   -0.1060650396
C        1.0105975918    0.3048992640   -0.4008108018
C        0.0320458460    0.5927781813    0.6782724837
C       -1.0263915221   -0.3848739079    1.0370793318
N       -2.2684886920   -0.1274372411    0.7705059577
C        1.5576633659   -1.1091515031   -0.5870975592
C        0.7418087743   -0.6960346460   -1.5019859345
H        1.6489822215    1.1632480652   -0.6225839725
H        0.3894502961    1.2118296383    1.5029426135
H       -0.8044686505   -1.3228688844    1.5488001123
H        2.1188785743   -1.8899295848   -0.0956150750
H        0.2268120821   -0.8625258721   -2.4371888328
13   
Iteration 4 Energy -340.89770233
C       -2.2556233650    1.1568339910    0.2012918315
N       -1.3889249564    1.9388571216   -0.0921368745
C        1.0174310562    0.2961715053   -0.3941206614
C        0.0220340255    0.5938686254    0.6649815247
C       -1.0332604684   -0.3853131489    1.0256599846
N       -2.2788556673   -0.1164065865    0.7874955148
C        1.5782170280   -1.1140406786   -0.5849021021
C        0.7482946273   -0.7097458489   -1.4908574075
H        1.6616017603    1.1505047410   -0.6144578945
H        0.3568639435    1.2363714688    1.4808410666
H       -0.8020541836   -1.3339910453    1.5121277474
H        2.1586079118   -1.8962145294   -0.1176781163
H        0.2203701199   -0.8713605442   -2.4194046251
13   
Iteration 5 Energy -340.89824477
C       -2.2686408564    1.1766542186    0.2511440567
N       -1.4015571024    1.9458653296   -0.0754819747
C        1.0243596978    0.2900173481   -0.3935640712
C        0.0131458908    0.5948396636    0.6465950862
C       -1.0360307736   -0.3864267022    1.0150495359
N       -2.2864854797   -0.1051770986    0.8166113843
C        1.5858747210   -1.1209389403   -0.5792315855
C        0.7613763893   -0.7186083229   -1.4904225500
H        1.6758190276    1.1402590172   -0.6082462076
H        0.3262475854    1.2606654493    1.4522359761
H       -0.7953416169   -1.3481300141    1.4698331531
H        2.1735594800   -1.9004100386   -0.1164394563
H        0.2338446895   -0.8785468542   -2.4193677201
13   
Iteration 6 Energy -340.89868387
C       -2.2793832468    1.1936983531    0.3006420675
N       -1.4114330171    1.9477111879   -0.0613861227
C        1.0310039316    0.2848163024   -0.3958951892
C        0.0031246915    0.5965181858    0.6245992155
C       -1.0372237614   -0.3871172438    1.0050246616
N       -2.2920922509   -0.0944551005    0.8494931487
C        1.5868880549   -1.1293424675   -0.5719816479
C        0.7780204373   -0.7245599608   -1.4955295009
H        1.6910839745    1.1305025906   -0.6019400324
H        0.2965850378    1.2849258725    1.4185771471
H       -0.7869563297   -1.3607624331    1.4275590320
H        2.1746162680   -1.9065925376   -0.1055594466
H        0.2582337994   -0.8830226376   -2.4289958575
13   
Iteration 7 Energy -340.89903106
C       -2.2894444388    1.2007909452    0.3377844632
N       -1.4217493637    1.9376927731   -0.0632854696
C        1.0381870296    0.2790479289   -0.3969465054
C       -0.0084090070    0.5995867450    0.6009056632
C       -1.0362459671   -0.3865694646    1.0003268395
N       -2.2949567216   -0.0874646699    0.8842638005
C        1.5793746450   -1.1411965644   -0.5656408976
C        0.7958506961   -0.7246573301   -1.5051340440
H        1.7120649974    1.1172756666   -0.5880660972
H        0.2663696882    1.3119098790    1.3804816524
H       -0.7750257126   -1.3678660381    1.3971168402
H        2.1603416797   -1.9210960857   -0.0952725610
H        0.2882562993   -0.8749708345   -2.4465243067
13   
Iteration 8 Energy -340.89925041
C       -2.2999988792    1.1840094282    0.3391407395
N       -1.4354283445    1.9104096589   -0.0908864972
C        1.0454429327    0.2740044435   -0.3914532350
C       -0.0173920471    0.6044169274    0.5855732620
C       -1.0301581626   -0.3852729848    1.0086732328
N       -2.2927009030   -0.0942442481    0.9074213494
C        1.5602617535   -1.1549038034   -0.5650744327
C        0.8070467610   -0.7123628507   -1.5168825116
H        1.7389703203    1.1007730221   -0.5607432602
H        0.2422313632    1.3392612025    1.3494722252
H       -0.7558227441   -1.3633694654    1.4041575036
H        2.1284664141   -1.9459197276   -0.0977316506
H        0.3108884075   -0.8423297915   -2.4672564728
13   
Iteration 9 Energy -340.89935463
C       -2.3071220797    1.1582197180    0.3176469200
N       -1.4486770533    1.8846781113   -0.1250423804
C        1.0537085601    0.2705541885   -0.3826152221
C       -0.0191161651    0.6084371457    0.5801987817
C       -1.0218383973   -0.3839419132    1.0201938298
N       -2.2871607906   -0.1079680429    0.9121607157
C        1.5431758052   -1.1655286804   -0.5681638510
C        0.8129246993   -0.6968067300   -1.5249623845
H        1.7642767541    1.0863608692   -0.5332143995
H        0.2274260792    1.3611480252    1.3309835116
H       -0.7376084212   -1.3530962248    1.4305349299
H        2.0991170113   -1.9693784328   -0.1080144313
H        0.3233266675   -0.8050542376   -2.4813734341
13   
Iteration 10 Energy -340.89942724
C       -2.3124266251    1.1345023841    0.3001473628
N       -1.4616264726    1.8591634097   -0.1598627590
C        1.0662597770    0.2619843887   -0.3739314499
C       -0.0186741119    0.6093888020    0.5708495339
C       -1.0128824622   -0.3844299077    1.0264505239
N       -2.2806957354   -0.1215279975    0.9152372538
C        1.5292374667   -1.1813445655   -0.5702508945
C        0.8247312780   -0.6867798340   -1.5329034850
H        1.7944476005    1.0655205369   -0.5049680338
H        0.2110004547    1.3833151035    1.3050931364
H       -0.7195553919   -1.3443844304    1.4518293974
H        2.0679397100   -1.9991628716   -0.1141864478
H        0.3447542978   -0.7727806954   -2.4963402150
13   
Iteration 11 Energy -340.89945994
C       -2.3154442011    1.1047789332    0.2728333865
N       -1.4660409833    1.8213307346   -0.2035705460
C        1.0773713641    0.2407077899   -0.3691947153
C       -0.0205282181    0.6013009018    0.5556576202
C       -1.0074243685   -0.3911084040    1.0282438925
N       -2.2771514077   -0.1388326754    0.9118125205
C        1.5122009585   -1.2098341326   -0.5736014526
C        0.8380857191   -0.6899660054   -1.5441738119
H        1.8239277843    1.0303782988   -0.4794749155
H        0.1973545947    1.3939680082    1.2732384060
H       -0.7065420250   -1.3401904229    1.4722734761
H        2.0274293512   -2.0429284817   -0.1180369787
H        0.3723823755   -0.7537268718   -2.5162029706
13   
Iteration 12 Energy -340.89946844
C       -2.3182669188    1.0405243634    0.1888930700
N       -1.4684382891    1.7523801527   -0.2942671241
C        1.0829398800    0.1957747005   -0.3891660539
C       -0.0226159853    0.5739629624    0.5199611845
C       -1.0047702947   -0.4124044336    1.0150332284
N       -2.2753006829   -0.1793737009    0.8721772408
C        1.4967719059   -1.2609798890   -0.5896453707
C        0.8434816746   -0.7300151682   -1.5682426920
H        1.8425694229    0.9740337289   -0.4910524899
H        0.1870512524    1.3862888459    1.2178248749
H       -0.6988811840   -1.3416155167    1.4962890717
H        1.9960271168   -2.1014778347   -0.1299146406
H        0.3862743235   -0.7845745952   -2.5447880630
13   
Iteration 13 Energy -340.89946871
C       -2.3427856377    1.1191003991    0.2002429173
N       -1.4868159406    1.8052683615   -0.3079484849
C        1.0331860289    0.1845400060   -0.4217834042
C       -0.0526964277    0.5976675037    0.4949968429
C       -1.0506610425   -0.3603002624    1.0140860519
N       -2.3172943720   -0.0963300205    0.8922527348
C        1.4119163206   -1.2836310183   -0.6084837199
C        0.7580009613   -0.7509227245   -1.5857181962
H        1.8089454867    0.9439250869   -0.5428395737
H        0.1798958029    1.4160311875    1.1783588321
H       -0.7599756505   -1.2944233345    1.4952454884
H        1.8981039972   -2.1291494868   -0.1439698598
H        0.2869685288   -0.8078762211   -2.5555302999
13   
Iteration 14 Energy -340.89959284
C       -2.7360883308    1.0602777531   -0.8367661882
N       -1.9883657375    1.4258291215   -1.7112500124
C        0.6425530798   -0.0451820626   -1.2980926711
C       -0.3944139543    0.7371225239   -0.5914493707
C       -1.2902390244    0.1262549854    0.4129153950
N       -2.5748839313    0.3014456918    0.3265197364
C        1.0856268312   -1.4231019301   -0.8085325076
C        0.3260105004   -1.4245534642   -1.8523572148
H        1.3638473687    0.5739191228   -1.8363919784
H       -0.1807967719    1.7931053173   -0.4214174014
H       -0.9076719971   -0.4787533592    1.2353090212
H        1.6475515893   -1.9494051781   -0.0504492332
H       -0.2134046840   -1.9370245167   -2.6345022298
13   
Iteration 15 Energy -340.89940724
C       -2.7314791471    1.0526768396   -0.8401913864
N       -1.9622578512    1.4020489853   -1.7066796614
C        0.6376413961   -0.0492289502   -1.3010738740
C       -0.4030215557    0.7312397658   -0.5947230458
C       -1.2917288217    0.1212840915    0.4134742161
N       -2.5772599880    0.2983889800    0.3267192341
C        1.0833695390   -1.4249826557   -0.8099060798
C        0.3305637609   -1.4288089039   -1.8582857157
H        1.3576193326    0.5741032715   -1.8360083745
H       -0.1784372288    1.7845566041   -0.4214466010
H       -0.9049492533   -0.4806099588    1.2358410866
H        1.6444971425   -1.9431269811   -0.0458292761
H       -0.2022838846   -1.9436475990   -2.6434381373
13   
Iteration 16 Energy -340.89946272
C       -2.7319015995    1.0212066239   -0.8568629553
N       -1.9591609520    1.3774678934   -1.7177871578
C        0.6374473746   -0.0513969454   -1.3014742195
C       -0.4023783738    0.7290258041   -0.5927956357
C       -1.2888282014    0.1242900167    0.4206241109
N       -2.5748078348    0.2884861582    0.3243188511
C        1.0789096593   -1.4293994272   -0.8130686197
C        0.3328450038   -1.4273042202   -1.8662985219
H        1.3605962873    0.5734693517   -1.8303865078
H       -0.1635365564    1.7778413703   -0.4072460600
H       -0.9004750799   -0.4680482363    1.2492626635
H        1.6361922500   -1.9484256813   -0.0469426452
H       -0.1964928641   -1.9388183264   -2.6560377032
13   
Iteration 17 Energy -340.89946649
C       -2.7304638888    1.0127130302   -0.8651519509
N       -1.9611970719    1.3835384728   -1.7213519769
C        0.6398536962   -0.0526712782   -1.3011979496
C       -0.3978170569    0.7292187215   -0.5919050279
C       -1.2887611825    0.1199165242    0.4162932427
N       -2.5751621577    0.2750548767    0.3128087198
C        1.0824174612   -1.4305370726   -0.8124116339
C        0.3321087250   -1.4296368167   -1.8627134448
H        1.3623901729    0.5705633736   -1.8328455816
H       -0.1633081214    1.7785532732   -0.4056775975
H       -0.9027732604   -0.4678965646    1.2493813789
H        1.6427796554   -1.9516203968   -0.0498379154
H       -0.2022162861   -1.9419493995   -2.6485912445
13   
Iteration 18 Energy -340.89946803
C       -2.8197735057    0.9750057264   -1.0107988162
N       -2.0269315741    1.3712649812   -1.8331780975
C        0.5937494884    0.0194766450   -1.3012165458
C       -0.4917067629    0.7722410383   -0.6332811324
C       -1.4060751342    0.1369750747    0.3379647789
N       -2.6909064209    0.2474714535    0.1769696031
C        1.0640136408   -1.3393014039   -0.7854573075
C        0.3496456150   -1.3709349897   -1.8602288327
H        1.3131245063    0.6622356175   -1.8135442771
H       -0.2954836654    1.8280531998   -0.4393922347
H       -1.0378351884   -0.4314582672    1.1922945886
H        1.6175540967   -1.8350478173   -0.0013156511
H       -0.1425672839   -1.9074548520   -2.6574175982
13   
Iteration 19 Energy -340.89946849
C       -2.8280192161    0.9530302610   -1.0461656069
N       -2.0361280015    1.3515140822   -1.8684502434
C        0.6075147459    0.0632423329   -1.2907408581
C       -0.5004392685    0.8033817484   -0.6462495980
C       -1.4098224883    0.1651997828    0.3275963845
N       -2.6952073931    0.2470197003    0.1541155274
C        1.1025099800   -1.2760654501   -0.7477105579
C        0.3993008271   -1.3415381154   -1.8281940088
H        1.3178884724    0.7126483501   -1.8072361692
H       -0.3291335345    1.8664520645   -0.4693651206
H       -1.0373573372   -0.3833814992    1.1929899520
H        1.6590927994   -1.7471531111    0.0493869734
H       -0.0738563171   -1.9017865533   -2.6205689089
13   
Iteration 20 Energy -340.89946860
C       -2.8296554199    0.9536708139   -1.0466799510
N       -2.0376541809    1.3523384331   -1.8688070018
C        0.6068444387    0.0655017612   -1.2904351983
C       -0.5018940118    0.8049119134   -0.6463265881
C       -1.4112652939    0.1661627368    0.3270685522
N       -2.6967017684    0.2475585072    0.1534560273
C        1.1032244733   -1.2728467140   -0.7462856757
C        0.4000667797   -1.3398593340   -1.8267560888
H        1.3164462107    0.7153701876   -1.8074105346
H       -0.3310681330    1.8680134466   -0.4691257039
H       -1.0388858806   -0.3821547527    1.1926611205
H        1.6603151678   -1.7422034370    0.0514715559
H       -0.0723018191   -1.9014348449   -2.6186685089
