13   
Climbing Image - Chain 29 Image 5 Energy  -340.9655034248 (+5.736 kcal/mol) RMSGrad 0.041 eV/Ang
C       -1.4574363432   -1.4528939682   -0.0077613615
N       -2.1191687857   -1.5513569807   -0.9702682023
C        0.3703267157    1.3042099490   -0.1066354021
C        0.1901538257    0.8059459487    1.1449804671
C       -0.0835153709   -0.5380059756    1.6239919786
N       -0.7733067203   -1.5177763283    1.1279337621
C        0.7785612950   -0.5981374445   -1.6788650696
C        0.4960726811    0.6578369372   -1.4168088666
H        0.5065354018    2.3841062746   -0.1578768057
H        0.3231841780    1.5167157432    1.9609886101
H        0.3236732539   -0.7530144256    2.6145207663
H        1.0619212506   -1.6094883067   -1.8756478683
H        0.3831594975    1.3550551768   -2.2569840652
