13   
Iteration 0 Energy -340.96550342
C       -1.4574363432   -1.4528939682   -0.0077613615
N       -2.1191687857   -1.5513569807   -0.9702682023
C        0.3703267157    1.3042099490   -0.1066354021
C        0.1901538257    0.8059459487    1.1449804671
C       -0.0835153709   -0.5380059756    1.6239919786
N       -0.7733067203   -1.5177763283    1.1279337621
C        0.7785612950   -0.5981374445   -1.6788650696
C        0.4960726811    0.6578369372   -1.4168088666
H        0.5065354018    2.3841062746   -0.1578768057
H        0.3231841780    1.5167157432    1.9609886101
H        0.3236732539   -0.7530144256    2.6145207663
H        1.0619212506   -1.6094883067   -1.8756478683
H        0.3831594975    1.3550551768   -2.2569840652
13   
Iteration 1 Energy -340.96558480
C       -1.4506985622   -1.4593421668   -0.0110384012
N       -2.1068868380   -1.5617843360   -0.9766010707
C        0.3730899045    1.3082552820   -0.1068869585
C        0.1907075469    0.8065910844    1.1431149613
C       -0.0841010130   -0.5369870568    1.6221576667
N       -0.7708269867   -1.5192129261    1.1274863587
C        0.7688305674   -0.5968469073   -1.6737227496
C        0.4960833205    0.6620204769   -1.4165461498
H        0.5129679624    2.3880557621   -0.1549988846
H        0.3232491759    1.5156663656    1.9602917985
H        0.3209749394   -0.7494551135    2.6143966894
H        1.0382899304   -1.6121446248   -1.8679506991
H        0.3882858293    1.3593631470   -2.2579530899
13   
Iteration 2 Energy -340.96567969
C       -1.4405288945   -1.4689799152   -0.0134837346
N       -2.0883622021   -1.5784509634   -0.9839168696
C        0.3771931881    1.3112557689   -0.1067725870
C        0.1905988271    0.8078721793    1.1422321575
C       -0.0860972290   -0.5344149142    1.6230783778
N       -0.7681160030   -1.5205495948    1.1296900111
C        0.7553647307   -0.5947895976   -1.6745680461
C        0.4975151091    0.6671579554   -1.4170172406
H        0.5224689611    2.3906407941   -0.1510162835
H        0.3219238916    1.5163920346    1.9598513872
H        0.3143673244   -0.7420970389    2.6184083351
H        1.0047093404   -1.6151932522   -1.8677553372
H        0.3985617391    1.3673645854   -2.2575154754
13   
Iteration 3 Energy -340.96579892
C       -1.4252770140   -1.4824669275   -0.0159357023
N       -2.0624085782   -1.6023625973   -0.9923778035
C        0.3824844668    1.3136811926   -0.1061290454
C        0.1894551916    0.8100706139    1.1423643480
C       -0.0892649737   -0.5301959441    1.6263909916
N       -0.7635601838   -1.5221176661    1.1334919906
C        0.7356388888   -0.5921712780   -1.6800124219
C        0.5002791611    0.6734403603   -1.4176953171
H        0.5350846351    2.3922708271   -0.1461006966
H        0.3187625581    1.5191977660    1.9596557055
H        0.3032413545   -0.7307521303    2.6264332960
H        0.9574801480   -1.6184388804   -1.8750001485
H        0.4168333765    1.3791062561   -2.2554424670
13   
Iteration 4 Energy -340.96595651
C       -1.4032349066   -1.5016000241   -0.0185319266
N       -2.0295740249   -1.6353455237   -1.0004461749
C        0.3881698912    1.3160685613   -0.1052373291
C        0.1860576816    0.8132222920    1.1430390910
C       -0.0932354151   -0.5244707354    1.6314862765
N       -0.7539165739   -1.5255027709    1.1376193583
C        0.7054256841   -0.5885568482   -1.6898656903
C        0.5052641336    0.6817497183   -1.4185924261
H        0.5493771902    2.3935632086   -0.1404632603
H        0.3125316569    1.5241805865    1.9590820540
H        0.2867787438   -0.7147947182    2.6383343353
H        0.8905071460   -1.6210759266   -1.8896070677
H        0.4518225594    1.3959038430   -2.2515726702
13   
Iteration 5 Energy -340.96612300
C       -1.3818770061   -1.5198098124   -0.0189912654
N       -2.0057863546   -1.6621917545   -1.0015485164
C        0.3884216049    1.3171311573   -0.1052689844
C        0.1787341360    0.8154389835    1.1433444874
C       -0.0948773391   -0.5206308091    1.6360941589
N       -0.7374759082   -1.5326320029    1.1394104675
C        0.6728571632   -0.5854711871   -1.7016001242
C        0.5131847879    0.6889657049   -1.4195944721
H        0.5516321712    2.3943780060   -0.1369365909
H        0.3012730561    1.5293626194    1.9573011183
H        0.2733807503   -0.7006550734    2.6491430333
H        0.8223561118   -1.6225658192   -1.9067785112
H        0.5056862913    1.4120419129   -2.2464562384
13   
Iteration 6 Energy -340.96626937
C       -1.3723254606   -1.5265020314   -0.0153277472
N       -2.0092530898   -1.6623543233   -0.9905640666
C        0.3750894879    1.3174626340   -0.1069815384
C        0.1635708508    0.8163032988    1.1424659537
C       -0.0894709444   -0.5220861459    1.6365285676
N       -0.7149342665   -1.5434511555    1.1357811440
C        0.6471975900   -0.5857159490   -1.7093054365
C        0.5277375006    0.6919440948   -1.4187426085
H        0.5223128490    2.3968708205   -0.1384952339
H        0.2739389543    1.5345441250    1.9543352548
H        0.2797205927   -0.6974883482    2.6500128817
H        0.7640078710   -1.6263077181   -1.9173662223
H        0.5846249396    1.4207238203   -2.2385295716
13   
Iteration 7 Energy -340.96631091
C       -1.4716882074   -1.4043937830   -0.0375185651
N       -2.1151807661   -1.4950595299   -1.0135240685
C        0.3620888371    1.3741307457   -0.0834641326
C        0.1130484900    0.8696389785    1.1575260724
C       -0.1645852800   -0.4707491652    1.6320854276
N       -0.8113935829   -1.4685812122    1.1112952508
C        0.6018026535   -0.5282773963   -1.6958109560
C        0.5498792576    0.7509819041   -1.3921433077
H        0.5237410723    2.4515230897   -0.1060931821
H        0.2124124807    1.5808755795    1.9769996338
H        0.2007117056   -0.6717150229    2.6422988560
H        0.6582706279   -1.5724793033   -1.9105182370
H        0.6984582711    1.4829031736   -2.1975147786
13   
Iteration 8 Energy -340.96624330
C       -2.2517010432    0.0655764473   -0.0173590106
N       -2.7451757285    0.2591653893   -1.0629110987
C        0.6314724547    1.7039517660    0.3049838246
C        0.0274040127    1.3687487765    1.4787978603
C       -0.8900551597    0.3077191133    1.8426557396
N       -1.8460833938   -0.2855315583    1.1965024679
C        0.1447616218   -0.0666925543   -1.4008268871
C        0.6735502714    1.0732542016   -1.0144179632
H        1.2788514894    2.5784102389    0.3684201755
H        0.3404295294    1.9516701706    2.3443844442
H       -0.7891810376   -0.0336165305    2.8760280774
H       -0.2991330718   -0.9936462497   -1.6894893741
H        1.2644490001    1.6471205052   -1.7419325884
13   
Iteration 9 Energy -340.96629689
C       -1.8983955912   -0.7167343758   -0.0520656026
N       -2.4805329738   -0.6708182218   -1.0686962062
C        0.4890901353    1.6035550840    0.0695632018
C        0.0571522790    1.1600390011    1.2829935952
C       -0.5374725275   -0.0884344141    1.7158084346
N       -1.3480518229   -0.9209898562    1.1378456196
C        0.3931050803   -0.2901404456   -1.5682429240
C        0.6174489753    0.9632133512   -1.2388364476
H        0.8893818519    2.6171306144    0.0789616540
H        0.2579697580    1.8281012964    2.1199592670
H       -0.2938794326   -0.3653280305    2.7446053207
H        0.2093104236   -1.3138265789   -1.8088965812
H        0.9852826231    1.6480773557   -2.0152315767
13   
Iteration 10 Energy -340.96630940
C       -1.6161643279   -1.1777879580   -0.0680405474
N       -2.2362340005   -1.2296878554   -1.0618040818
C        0.3908846532    1.4808507405   -0.0539536966
C        0.0790009869    0.9901383627    1.1781164987
C       -0.2986502780   -0.3302293967    1.6400811549
N       -0.9945012805   -1.2830966187    1.0992057438
C        0.5377144337   -0.4274350624   -1.6701801186
C        0.5675431800    0.8509631784   -1.3613397113
H        0.6265875152    2.5447264445   -0.0671776176
H        0.2052498763    1.6906965107    2.0030494061
H        0.0251122255   -0.5559028824    2.6591998097
H        0.5202024556   -1.4714025412   -1.8925898727
H        0.7861463618    1.5742253708   -2.1587255281
13   
Iteration 11 Energy -340.96631145
C       -1.4733899561   -1.3989507037   -0.0419905484
N       -2.1134869649   -1.4922557775   -1.0199457061
C        0.3632188910    1.3794001790   -0.0830234158
C        0.1117998540    0.8749405163    1.1573722977
C       -0.1693538865   -0.4652317841    1.6308809439
N       -0.8168610943   -1.4618953395    1.1090348458
C        0.5978109429   -0.5236891710   -1.6948463353
C        0.5500107837    0.7557112699   -1.3917743666
H        0.5285223152    2.4562874932   -0.1051818678
H        0.2118132821    1.5854224275    1.9774407121
H        0.1935749102   -0.6669034001    2.6417794431
H        0.6474905273   -1.5677179789   -1.9120759015
H        0.7009998044    1.4872318084   -2.1971167822
13   
Iteration 12 Energy -340.96631150
C       -1.4748811146   -1.3987040584   -0.0412511436
N       -2.1164764014   -1.4914744424   -1.0182556284
C        0.3628465948    1.3789566660   -0.0831933244
C        0.1115484939    0.8744459379    1.1571603150
C       -0.1690338370   -0.4659119894    1.6306327847
N       -0.8170686782   -1.4623280106    1.1090618613
C        0.5999484253   -0.5238292160   -1.6953604109
C        0.5505499448    0.7554033475   -1.3919403776
H        0.5275263786    2.4559387342   -0.1053960141
H        0.2110635219    1.5850145845    1.9772235108
H        0.1946224594   -0.6677952575    2.6412279404
H        0.6515381074   -1.5675224575   -1.9137351635
H        0.7010816589    1.4872458717   -2.1970989302
13   
Iteration 13 Energy -340.96631157
C       -1.4746350976   -1.3987824917   -0.0416531518
N       -2.1158650539   -1.4916205386   -1.0188923312
C        0.3631844634    1.3789365838   -0.0830289542
C        0.1117184613    0.8743355280    1.1572532578
C       -0.1690708113   -0.4660546086    1.6305322362
N       -0.8171361958   -1.4623834393    1.1088339765
C        0.5992301011   -0.5239607827   -1.6950053197
C        0.5506221204    0.7553509722   -1.3917894773
H        0.5282069454    2.4558667438   -0.1051363322
H        0.2112843035    1.5847709742    1.9774242298
H        0.1945006276   -0.6680819032    2.6411294349
H        0.6504018985   -1.5676663865   -1.9134438108
H        0.7014978276    1.4870582242   -2.1969991775
