13   
Climbing Image - Chain 100 Image 2 Energy  -340.9792465672 (+20.294 kcal/mol) RMSGrad 0.134 eV/Ang
C       -2.4635357773    1.3222661356    1.3948769138
N       -2.7303844717    2.3562372175    1.8737476831
C        1.1315536282    0.2772753718   -0.6059032813
C       -0.0325481511    0.6412172442    0.0811552865
C       -1.1670900111   -0.1973661150    0.2602984038
N       -2.2858531801    0.1078872337    0.8761692804
C        1.9833916256   -1.4390463118   -0.2629388982
C        1.3528485038   -1.0213147740   -1.3076069535
H        1.8780915088    1.0531498068   -0.7541030216
H       -0.0775397465    1.6394192377    0.5124536422
H       -1.1319820223   -1.2117118213   -0.1363492225
H        2.4867531788   -2.1663535989    0.3542460638
H        1.0647971812   -1.3813057058   -2.2902704430
