13   
Iteration 0 Energy -340.97924657
C       -2.4635357773    1.3222661356    1.3948769138
N       -2.7303844717    2.3562372175    1.8737476831
C        1.1315536282    0.2772753718   -0.6059032813
C       -0.0325481511    0.6412172442    0.0811552865
C       -1.1670900111   -0.1973661150    0.2602984038
N       -2.2858531801    0.1078872337    0.8761692804
C        1.9833916256   -1.4390463118   -0.2629388982
C        1.3528485038   -1.0213147740   -1.3076069535
H        1.8780915088    1.0531498068   -0.7541030216
H       -0.0775397465    1.6394192377    0.5124536422
H       -1.1319820223   -1.2117118213   -0.1363492225
H        2.4867531788   -2.1663535989    0.3542460638
H        1.0647971812   -1.3813057058   -2.2902704430
13   
Iteration 1 Energy -340.97936062
C       -2.4653054023    1.3194968852    1.3946535945
N       -2.7371167198    2.3481665681    1.8863168681
C        1.1279091434    0.2820760941   -0.6090835589
C       -0.0296997210    0.6491105210    0.0761449336
C       -1.1647979467   -0.1927803079    0.2534630339
N       -2.2842333092    0.1099175249    0.8682703961
C        1.9867322515   -1.4521507734   -0.2616110965
C        1.3477691988   -1.0229646457   -1.2988235152
H        1.8817997693    1.0506969970   -0.7579281340
H       -0.0723766679    1.6471482746    0.5068010878
H       -1.1273156577   -1.2055383988   -0.1453482117
H        2.4956988744   -2.1686796833    0.3612000542
H        1.0534511601   -1.3826828556   -2.2825323978
13   
Iteration 2 Energy -340.97951105
C       -2.4636453180    1.3186679815    1.4002788562
N       -2.7315444441    2.3404765923    1.9087033180
C        1.1245629918    0.2812463084   -0.6153860432
C       -0.0307435243    0.6499090294    0.0712096599
C       -1.1694938455   -0.1886687527    0.2437560769
N       -2.2879890971    0.1149029663    0.8598396330
C        1.9876620585   -1.4530565967   -0.2611369187
C        1.3455239514   -1.0275513124   -1.2977635671
H        1.8857116977    1.0436234416   -0.7582322725
H       -0.0685495359    1.6462168208    0.5060320132
H       -1.1360114592   -1.1986705040   -0.1618967394
H        2.5033088780   -2.1469926971    0.3799021645
H        1.0507246191   -1.3916907611   -2.2805957322
13   
Iteration 3 Energy -340.97964625
C       -2.4559887276    1.3190470957    1.4093926987
N       -2.7143142822    2.3320378280    1.9401086824
C        1.1221145203    0.2802251390   -0.6262844125
C       -0.0305280753    0.6509038453    0.0641853752
C       -1.1753626143   -0.1806586273    0.2272135165
N       -2.2921333188    0.1243517486    0.8461854499
C        1.9885632395   -1.4506903790   -0.2596940865
C        1.3432040074   -1.0345528846   -1.2972852005
H        1.8931073357    1.0342360403   -0.7584587643
H       -0.0614519444    1.6438558119    0.5070633860
H       -1.1501476930   -1.1854890593   -0.1917409415
H        2.5111663770   -2.1116002784    0.4084011467
H        1.0442419563   -1.4098981754   -2.2748973382
13   
Iteration 4 Energy -340.97968870
C       -2.4390046185    1.3351317595    1.3919563327
N       -2.6907646358    2.3428882456    1.9356883958
C        1.1398150957    0.2848023966   -0.6383238190
C       -0.0130702670    0.6630671322    0.0482203725
C       -1.1646873694   -0.1607240806    0.1985300083
N       -2.2830441642    0.1467323046    0.8137987317
C        2.0011487436   -1.4436320748   -0.2498293022
C        1.3581183526   -1.0388838636   -1.2927176076
H        1.9205198180    1.0298244443   -0.7626483356
H       -0.0397683459    1.6552568857    0.4930019409
H       -1.1448158750   -1.1614874236   -0.2304447471
H        2.5211775670   -2.0783023613    0.4441799975
H        1.0471845868   -1.4315875705   -2.2597201202
13   
Iteration 5 Energy -340.97968984
C       -2.4322751889    1.3532898698    1.4055046644
N       -2.6768095842    2.3601039457    1.9543183869
C        1.1384675225    0.2952676676   -0.6342850760
C       -0.0136624265    0.6744316613    0.0532872360
C       -1.1684008251   -0.1448534333    0.2035010442
N       -2.2841040789    0.1664458799    0.8220640242
C        2.0059719324   -1.4294901829   -0.2437814321
C        1.3602865935   -1.0289380045   -1.2865303126
H        1.9196845732    1.0399132863   -0.7570512072
H       -0.0373079550    1.6665438056    0.4984929061
H       -1.1548279808   -1.1443939496   -0.2286034341
H        2.5315666707   -2.0543504988    0.4546925154
H        1.0524433084   -1.4244147105   -2.2534390048
13   
Iteration 6 Energy -340.97969064
C       -2.4233504420    1.3617349351    1.4017323268
N       -2.6674792190    2.3696939736    1.9485805864
C        1.1456503805    0.2975994362   -0.6371928547
C       -0.0046564287    0.6798164561    0.0516785437
C       -1.1601603361   -0.1383167688    0.2021216515
N       -2.2758122352    0.1739876973    0.8200909303
C        2.0044477067   -1.4316035885   -0.2474001566
C        1.3600584652   -1.0276822165   -1.2896033609
H        1.9296853154    1.0391905495   -0.7607259832
H       -0.0264273805    1.6717861494    0.4972297744
H       -1.1467657288   -1.1381175351   -0.2293587916
H        2.5268787073   -2.0588595268    0.4512326029
H        1.0468632954   -1.4220855850   -2.2551841510
13   
Iteration 7 Energy -340.97969064
C       -2.4082362519    1.3797825792    1.4073174895
N       -2.6475084619    2.3885661153    1.9547925864
C        1.1553585157    0.3006594112   -0.6337418793
C        0.0066011266    0.6878480218    0.0549283369
C       -1.1520848428   -0.1255239480    0.2067092846
N       -2.2660346178    0.1914772965    0.8254221032
C        2.0095722367   -1.4306796601   -0.2425332602
C        1.3658333512   -1.0258885919   -1.2848316693
H        1.9415344176    1.0397135983   -0.7587508705
H       -0.0109895700    1.6804273412    0.4993262598
H       -1.1431395011   -1.1255519986   -0.2243575363
H        2.5309128959   -2.0580184592    0.4568487388
H        1.0512691980   -1.4205291897   -2.2498812299
13   
Iteration 8 Energy -340.97969066
C       -2.4078048250    1.3804158820    1.4072770632
N       -2.6466804100    2.3893942693    1.9545723242
C        1.1553482292    0.3006300380   -0.6337004482
C        0.0065084753    0.6876550142    0.0549114474
C       -1.1523160132   -0.1255188892    0.2067931678
N       -2.2660938250    0.1919519976    0.8255776590
C        2.0098764664   -1.4306274870   -0.2426419175
C        1.3661797905   -1.0257865508   -1.2849456442
H        1.9414483118    1.0398031347   -0.7585010275
H       -0.0110967350    1.6802204751    0.4993381470
H       -1.1436975004   -1.1256080991   -0.2241450137
H        2.5312496854   -2.0580955865    0.4565934808
H        1.0518542535   -1.4203550073   -2.2501063804
