13   
IRC product Energy -340.92501854
C       -2.1153093431    1.4221662208    0.2936537780
N       -0.9414200945    1.8523063917    0.1589945055
C        0.9271161738    0.3074562327   -0.4615270700
C       -0.1109717201    0.6896997190    0.5963500937
C       -1.1634852275   -0.3418853662    0.9376783914
N       -2.3653764369    0.0998704001    0.7628325965
C        1.4237315133   -1.1044211522   -0.6407001147
C        0.6324153845   -0.6667940714   -1.5700416513
H        1.6036981819    1.1445818828   -0.6569458468
H        0.4107447714    0.9970878172    1.5166315395
H       -0.9724486974   -1.3488192228    1.3029444809
H        2.0499500575   -1.8867701459   -0.2372275104
H        0.1149689993   -0.8148044010   -2.5060622061
