13   
Iteration 0 Energy -340.92501854
C       -2.1153093431    1.4221662208    0.2936537780
N       -0.9414200945    1.8523063917    0.1589945055
C        0.9271161738    0.3074562327   -0.4615270700
C       -0.1109717201    0.6896997190    0.5963500937
C       -1.1634852275   -0.3418853662    0.9376783914
N       -2.3653764369    0.0998704001    0.7628325965
C        1.4237315133   -1.1044211522   -0.6407001147
C        0.6324153845   -0.6667940714   -1.5700416513
H        1.6036981819    1.1445818828   -0.6569458468
H        0.4107447714    0.9970878172    1.5166315395
H       -0.9724486974   -1.3488192228    1.3029444809
H        2.0499500575   -1.8867701459   -0.2372275104
H        0.1149689993   -0.8148044010   -2.5060622061
13   
Iteration 1 Energy -340.92501854
C       -2.1159420041    1.4211681833    0.2932743463
N       -0.9421766770    1.8516950850    0.1587018234
C        0.9269218143    0.3074935623   -0.4616560293
C       -0.1113985583    0.6893633061    0.5961207653
C       -1.1635623908   -0.3426484846    0.9372454844
N       -2.3655859792    0.0987457667    0.7623254882
C        1.4240012739   -1.1042207110   -0.6408172297
C        0.6326091293   -0.6668299700   -1.5702060560
H        1.6032446191    1.1448467243   -0.6569936931
H        0.4101190992    0.9968889011    1.5164691003
H       -0.9721971278   -1.3495528135    1.3024221005
H        2.0504376644   -1.8863782996   -0.2373126532
H        0.1152709299   -0.8149903681   -2.5062628301
