13   
Frame   0 IRC: Energy =  -340.9924080000 ; +0.0000 kcal/mol
C       -1.7387439105   -1.2864595209    0.0413887410
N       -2.4666924942   -1.2676187305   -0.8754282684
C        0.4141674690    1.1405896597   -0.1692466578
C        0.2117012098    0.7409869936    1.1046232733
C       -0.1969481427   -0.5672482563    1.6161231305
N       -1.0106391709   -1.4535924991    1.1431904640
C        1.3345534489   -0.2848906425   -1.9569746819
C        0.3057419285    0.3364478984   -1.4211404729
H        0.7464496414    2.1700078113   -0.3074940647
H        0.4588493360    1.4514196532    1.8927263984
H        0.2307991312   -0.8319577546    2.5853524854
H        2.3835850564   -0.4488062605   -1.7469087789
H       -0.6728235027    0.3011216476   -1.9062115678
