13   
Iteration 0 Energy -340.96859070
C       -1.7387439105   -1.2864595209    0.0413887410
N       -2.4666924942   -1.2676187305   -0.8754282684
C        0.4141674690    1.1405896597   -0.1692466578
C        0.2117012098    0.7409869936    1.1046232733
C       -0.1969481427   -0.5672482563    1.6161231305
N       -1.0106391709   -1.4535924991    1.1431904640
C        1.3345534489   -0.2848906425   -1.9569746819
C        0.3057419285    0.3364478984   -1.4211404729
H        0.7464496414    2.1700078113   -0.3074940647
H        0.4588493360    1.4514196532    1.8927263984
H        0.2307991312   -0.8319577546    2.5853524854
H        2.3835850564   -0.4488062605   -1.7469087789
H       -0.6728235027    0.3011216476   -1.9062115678
13   
Iteration 1 Energy -340.96842495
C       -1.7426413520   -1.2114230867    0.0212794031
N       -2.5135526517   -1.1234855214   -0.8552059375
C        0.3755566559    1.1390767692   -0.1776811587
C        0.2087902967    0.7492761741    1.1019828300
C       -0.1521576545   -0.5844985104    1.5773624287
N       -0.9678068207   -1.4516086614    1.0770721108
C        1.3562531803   -0.3126066756   -1.8878726396
C        0.2920755584    0.2797662684   -1.3934967487
H        0.6629794332    2.1777376664   -0.3467056968
H        0.4468745922    1.4592889604    1.8936797919
H        0.3097219441   -0.8862812543    2.5202794812
H        2.4087499896   -0.4062660519   -1.6514685494
H       -0.6841276174    0.1704936317   -1.8724524362
13   
Iteration 2 Energy -340.96874014
C       -1.7776360205   -1.2455924705    0.0558758446
N       -2.5556972032   -1.1796470980   -0.8161307435
C        0.3905058155    1.1374035821   -0.1839738458
C        0.2088391131    0.7393004160    1.0913295451
C       -0.1701465147   -0.5845578534    1.5816329510
N       -0.9927087923   -1.4608468279    1.1094555099
C        1.3788804543   -0.2856086927   -1.9126723564
C        0.3139050521    0.3058802415   -1.4195085802
H        0.6904581181    2.1753978645   -0.3343814458
H        0.4516434275    1.4478975653    1.8828290885
H        0.2923138213   -0.8737513242    2.5283135795
H        2.4270285513   -0.3932341191   -1.6626140874
H       -0.6567797038    0.2166115547   -1.9132211441
13   
Iteration 3 Energy -340.96869025
C       -1.7445741614   -1.2553895942    0.0525365364
N       -2.4798887555   -1.2016592439   -0.8566601722
C        0.3931790631    1.1329538385   -0.1770375190
C        0.2024451802    0.7323890880    1.0972124924
C       -0.1820070184   -0.5798657664    1.6152033573
N       -1.0055919554   -1.4553176949    1.1422304763
C        1.3517747452   -0.2911007748   -1.9470306002
C        0.3108327492    0.3222296487   -1.4271974638
H        0.7053200483    2.1686510275   -0.3168965345
H        0.4392770836    1.4491457238    1.8828752719
H        0.2719898320   -0.8573927912    2.5696092625
H        2.3992445382   -0.4330582332   -1.7116027405
H       -0.6630159136    0.2663639624   -1.9193829777
13   
Iteration 4 Energy -340.96880668
C       -1.7555050863   -1.2548574417    0.0491452849
N       -2.5073849181   -1.1959008856   -0.8459651613
C        0.3917007458    1.1416772245   -0.1784660406
C        0.2063676766    0.7421703537    1.0960532649
C       -0.1737146685   -0.5797869814    1.5914234599
N       -0.9962875373   -1.4592971149    1.1243015229
C        1.3550851345   -0.2987197410   -1.9228656293
C        0.3079390261    0.3163055692   -1.4183746186
H        0.6998680549    2.1776413234   -0.3256704038
H        0.4420265266    1.4539844625    1.8869313141
H        0.2912530626   -0.8673712414    2.5373543265
H        2.4016012178   -0.4302666817   -1.6765706194
H       -0.6649476720    0.2511615378   -1.9116787109
13   
Iteration 5 Energy -340.96884020
C       -1.7719000129   -1.2329793455    0.0602845872
N       -2.5446198529   -1.1494073412   -0.8146898694
C        0.3793938436    1.1364698493   -0.1873365947
C        0.2023189359    0.7355880141    1.0872803552
C       -0.1581854581   -0.5918491094    1.5820114659
N       -0.9875221839   -1.4635237464    1.1127399975
C        1.3773571672   -0.2977431456   -1.9053252282
C        0.3124522934    0.3034710982   -1.4226623389
H        0.6699299404    2.1771636383   -0.3377942537
H        0.4300251654    1.4499079444    1.8782136317
H        0.3212300572   -0.8861499088    2.5188943356
H        2.4215245320   -0.4072719110   -1.6381599650
H       -0.6543107425    0.2208422463   -1.9254486627
13   
Iteration 6 Energy -340.96889116
C       -1.7692699583   -1.2320697076    0.0611636529
N       -2.5414379479   -1.1446353798   -0.8138196725
C        0.3745160410    1.1404675307   -0.1864095312
C        0.1990271154    0.7392683437    1.0883312197
C       -0.1520629831   -0.5931671419    1.5773469416
N       -0.9823633595   -1.4658727578    1.1114906931
C        1.3740119577   -0.3090889924   -1.9004651948
C        0.3149356985    0.3059425471   -1.4215185025
H        0.6566540419    2.1833112295   -0.3375193958
H        0.4172473757    1.4549302811    1.8808204918
H        0.3383959718   -0.8925882815    2.5068131101
H        2.4154842755   -0.4299650593   -1.6274629687
H       -0.6492261518    0.2331202218   -1.9305832115
13   
Iteration 7 Energy -340.96901074
C       -1.7557419970   -1.2392327176    0.0612549470
N       -2.5227428294   -1.1492911296   -0.8176405799
C        0.3654051150    1.1567585753   -0.1876027622
C        0.1955961914    0.7462421150    1.0846496411
C       -0.1314305145   -0.5979793731    1.5631173673
N       -0.9642103385   -1.4751702755    1.1093794018
C        1.3524136377   -0.3419249512   -1.8732502250
C        0.3095943239    0.3214508003   -1.4224183445
H        0.6275111178    2.2048374821   -0.3383763173
H        0.3894103361    1.4635297208    1.8820574359
H        0.3845940928   -0.9057080708    2.4756737864
H        2.3796174164   -0.5068879443   -1.5701897826
H       -0.6420677238    0.2945444780   -1.9592152212
13   
Iteration 8 Energy -340.96921681
C       -1.7376836343   -1.2429179773    0.0620240873
N       -2.5061169972   -1.1456747762   -0.8143202260
C        0.3464544220    1.1728115392   -0.1894621650
C        0.1899510158    0.7544245178    1.0811270647
C       -0.0989160787   -0.6061999811    1.5439210041
N       -0.9314867102   -1.4883888463    1.0990907179
C        1.3262654262   -0.3848768165   -1.8356025729
C        0.3068826015    0.3399449715   -1.4263815891
H        0.5706415537    2.2295709392   -0.3403344072
H        0.3537155373    1.4728688246    1.8844329514
H        0.4471663475   -0.9222376157    2.4357253661
H        2.3272655060   -0.6107532240   -1.4873544991
H       -0.6180173667    0.3759287957   -2.0076634969
13   
Iteration 9 Energy -340.96921672
C       -1.7705521432   -1.2290790664    0.0933377456
N       -2.5778659773   -1.1147479890   -0.7452406044
C        0.3311298809    1.1644776674   -0.2089218303
C        0.1876121540    0.7302085463    1.0574389234
C       -0.0830175275   -0.6265684332    1.5398408570
N       -0.9240241146   -1.4981021890    1.0914745363
C        1.3677235751   -0.3654007492   -1.8188295941
C        0.3224124064    0.3432952211   -1.4519202693
H        0.5275917363    2.2283488393   -0.3505130101
H        0.3552191922    1.4486364040    1.8595121196
H        0.4634415958   -0.9344745993    2.4348921077
H        2.3562021205   -0.5813961202   -1.4313546752
H       -0.5812592269    0.3770849036   -2.0657794201
13   
Iteration 10 Energy -340.96937309
C       -1.7537759521   -1.2198234154    0.0724563111
N       -2.5603396969   -1.1009709716   -0.7662887892
C        0.3258978677    1.1699275144   -0.2024080142
C        0.1897215730    0.7427143849    1.0666165791
C       -0.0752146889   -0.6216684021    1.5287046703
N       -0.9092552265   -1.4942014768    1.0702155443
C        1.3514014952   -0.3829000662   -1.8028393055
C        0.3112834111    0.3328025083   -1.4345817344
H        0.5188892028    2.2329485317   -0.3546804937
H        0.3567049926    1.4585238859    1.8715994633
H        0.4728134261   -0.9381315150    2.4195538577
H        2.3426097479   -0.5973252074   -1.4218443082
H       -0.5963827950    0.3604236265   -2.0426743765
13   
Iteration 11 Energy -340.96941291
C       -1.7501349572   -1.2542300741    0.0719183466
N       -2.5468265777   -1.1640692370   -0.7798808512
C        0.3381949827    1.1792494028   -0.1953640283
C        0.1939724498    0.7528351111    1.0734634037
C       -0.0905758361   -0.6098709687    1.5295239832
N       -0.9168811786   -1.4973882732    1.0860334757
C        1.3342048835   -0.3840561645   -1.8180073804
C        0.3154441101    0.3556938569   -1.4367720869
H        0.5451845132    2.2404568619   -0.3410526236
H        0.3665960796    1.4657562055    1.8800667800
H        0.4533891156   -0.9224657412    2.4238690752
H        2.3192177286   -0.6326238014   -1.4420988142
H       -0.5885624401    0.4144877529   -2.0478521467
13   
Iteration 12 Energy -340.96952244
C       -1.7318259763   -1.2384596137    0.0601596545
N       -2.5195302467   -1.1391746095   -0.7989509483
C        0.3302193946    1.1766427974   -0.1948495611
C        0.1932171106    0.7502971727    1.0750704958
C       -0.0829194723   -0.6119874449    1.5370406398
N       -0.9103087963   -1.4922686359    1.0815312278
C        1.3236266025   -0.3924444392   -1.8117274650
C        0.3048505021    0.3483100815   -1.4326151392
H        0.5316511200    2.2384963536   -0.3442951498
H        0.3647707228    1.4655902758    1.8794493530
H        0.4597891727   -0.9259789367    2.4319894719
H        2.3092927235   -0.6389816063   -1.4361542604
H       -0.6000297195    0.4043550706   -2.0428520890
13   
Iteration 13 Energy -340.96966977
C       -1.7171865714   -1.2479613368    0.0485877621
N       -2.5027403280   -1.1588359529   -0.8136456700
C        0.3265670854    1.1862366527   -0.1955059989
C        0.2004890609    0.7525731367    1.0730914433
C       -0.0763187784   -0.6099959893    1.5332017405
N       -0.9006046857   -1.4925507182    1.0759802882
C        1.3023365074   -0.4030713583   -1.7931146208
C        0.2933087618    0.3600197919   -1.4331858316
H        0.5251210532    2.2489905613   -0.3433901986
H        0.3799064103    1.4641395832    1.8789612559
H        0.4637208198   -0.9224075545    2.4303401470
H        2.2756976608   -0.6713399878   -1.4008201487
H       -0.5997884344    0.4388826480   -2.0581436159
13   
Iteration 14 Energy -340.96989219
C       -1.6974981256   -1.2578763048    0.0374045556
N       -2.4821374881   -1.1793707456   -0.8267735071
C        0.3177741103    1.1942380147   -0.1949855568
C        0.2064076244    0.7547432073    1.0733627034
C       -0.0663671395   -0.6085885950    1.5323683209
N       -0.8859549611   -1.4934981904    1.0705349874
C        1.2782363565   -0.4172009032   -1.7793211642
C        0.2865930421    0.3766523082   -1.4370241001
H        0.5049316417    2.2596540322   -0.3389811518
H        0.3908468206    1.4640527629    1.8800965318
H        0.4683407795   -0.9170154462    2.4340240469
H        2.2324578793   -0.7210593444   -1.3667364043
H       -0.5855825769    0.4919091230   -2.0849588632
13   
Iteration 15 Energy -340.97021508
C       -1.6756914942   -1.2711779705    0.0275668532
N       -2.4651877856   -1.2026857653   -0.8331778403
C        0.3045948850    1.2100145670   -0.1965852716
C        0.2135448353    0.7566348022    1.0692555448
C       -0.0494799504   -0.6092997622    1.5251133289
N       -0.8630868758   -1.4987350868    1.0609257645
C        1.2480708731   -0.4385504334   -1.7567021349
C        0.2838355827    0.4003817397   -1.4416084615
H        0.4693390381    2.2800427045   -0.3346744590
H        0.3993353112    1.4620343674    1.8789949119
H        0.4809804526   -0.9131184632    2.4306971745
H        2.1704497176   -0.7918867527   -1.3124430778
H       -0.5516223773    0.5673430455   -2.1251425876
13   
Iteration 16 Energy -340.97062048
C       -1.6452252690   -1.2873799531    0.0204877340
N       -2.4355392505   -1.2280249296   -0.8403544795
C        0.2867261090    1.2206804002   -0.1991185196
C        0.2220581842    0.7584249684    1.0662120416
C       -0.0269541658   -0.6105957371    1.5189980830
N       -0.8345478788   -1.5065638720    1.0562545436
C        1.2060460669   -0.4642055313   -1.7324937685
C        0.2828640833    0.4338569033   -1.4551260467
H        0.4164595405    2.2964652896   -0.3281595690
H        0.4027633843    1.4633606963    1.8776263653
H        0.5010596851   -0.9086605814    2.4277529291
H        2.0745098026   -0.8860688111   -1.2415484046
H       -0.4888018230    0.6785580670   -2.1885512243
13   
Iteration 17 Energy -340.97099086
C       -1.6165264679   -1.3174884440    0.0176631434
N       -2.4085770886   -1.2738175608   -0.8424880714
C        0.2664688335    1.2476224703   -0.2020891427
C        0.2274043781    0.7611905747    1.0565991818
C        0.0014318279   -0.6121106944    1.5066419520
N       -0.8009166324   -1.5196551536    1.0534839630
C        1.1481314693   -0.5000749696   -1.7061305816
C        0.3027534721    0.4835704891   -1.4654192955
H        0.3429068777    2.3302195867   -0.3161319439
H        0.3916940319    1.4629074100    1.8741821077
H        0.5353637827   -0.9014065232    2.4149301228
H        1.9267414566   -1.0234285457   -1.1646223042
H       -0.3592172068    0.8349182204   -2.2595468325
13   
Iteration 18 Energy -340.97110484
C       -1.5983714617   -1.3419973709    0.0237421048
N       -2.3878260551   -1.3100249420   -0.8391489568
C        0.2605263944    1.2560211389   -0.2037319352
C        0.2230890003    0.7632518343    1.0539578161
C        0.0158183014   -0.6119823141    1.5043712446
N       -0.7782421380   -1.5309510440    1.0585932318
C        1.1075552350   -0.5171379331   -1.7029898465
C        0.3258930506    0.5230136772   -1.4802006859
H        0.3064402777    2.3412802722   -0.3044690531
H        0.3632988155    1.4672962527    1.8743238029
H        0.5524999356   -0.8917962545    2.4140688010
H        1.8115119041   -1.1157169816   -1.1375739474
H       -0.2473459599    0.9500407025   -2.3060487587
13   
Iteration 19 Energy -340.97115736
C       -1.5805970108   -1.3694259400    0.0244220323
N       -2.3570687037   -1.3553225106   -0.8505539944
C        0.2679170371    1.2671875912   -0.1990800822
C        0.2118921657    0.7683984609    1.0561363909
C        0.0125110850   -0.6063965716    1.5103174581
N       -0.7675879340   -1.5388979247    1.0680291146
C        1.0713683177   -0.5262306038   -1.7170469416
C        0.3463458036    0.5522752770   -1.4840951869
H        0.3163387504    2.3531440657   -0.2884460907
H        0.3358357539    1.4738365652    1.8780030126
H        0.5497170780   -0.8769329786    2.4226642696
H        1.7263443274   -1.1831951054   -1.1580446269
H       -0.1790386407    1.0255208095   -2.3166777961
13   
Iteration 20 Energy -340.97121168
C       -1.5538489580   -1.4052205339    0.0173125709
N       -2.3245755524   -1.4159409314   -0.8626755597
C        0.2746230333    1.2859430663   -0.1949507971
C        0.1958274479    0.7776378554    1.0558920935
C        0.0187117472   -0.6001722788    1.5074386757
N       -0.7361499846   -1.5514509894    1.0607999688
C        1.0091088749   -0.5432888307   -1.7134968416
C        0.3755362908    0.5925622196   -1.4880432046
H        0.3225508001    2.3728371924   -0.2697018096
H        0.3012561705    1.4818129352    1.8813938225
H        0.5586152030   -0.8582809846    2.4222507350
H        1.5703496149   -1.2798699370   -1.1526872452
H       -0.0593496621    1.1272193480   -2.3358439193
13   
Iteration 21 Energy -340.97142604
C       -1.4775692419   -1.4975254239    0.0040951134
N       -2.1958159437   -1.5828690448   -0.9154211187
C        0.3065869949    1.3129167053   -0.1793782186
C        0.1573097791    0.7929535919    1.0628858465
C        0.0019516080   -0.5799932167    1.5307858665
N       -0.6951587946   -1.5731556670    1.0803681312
C        0.8419090151   -0.5596632982   -1.7616420243
C        0.4731290633    0.6787595450   -1.4902479357
H        0.3539346207    2.4010672933   -0.2221132521
H        0.2188048417    1.5034465801    1.8873806419
H        0.5183333531   -0.7970329838    2.4701321839
H        1.1174392726   -1.4722883356   -1.2511097252
H        0.3224560897    1.3584529210   -2.3329869582
13   
Iteration 22 Energy -340.96918648
C       -1.3835061948   -1.6034910798   -0.0096920127
N       -1.9835829274   -1.7900099875   -0.9972257753
C        0.3889395451    1.3106791081   -0.1514105115
C        0.1061883273    0.8041597590    1.0782946351
C       -0.0807571248   -0.5450400912    1.5899409751
N       -0.7037316246   -1.5843132764    1.1333834181
C        0.6085143192   -0.5191071284   -1.8944920540
C        0.6490869942    0.7306234263   -1.4652451677
H        0.4786091272    2.3961201790   -0.1647285846
H        0.1223708469    1.5356311897    1.8862376431
H        0.3517026064   -0.7006812109    2.5826579601
H        0.4135208989   -1.5294157855   -1.5685444166
H        0.9605655965    1.4815620638   -2.1966065566
13   
Iteration 23 Energy -340.97107759
C       -1.4126137109   -1.5552672184   -0.0113450162
N       -2.0708755154   -1.6940480644   -0.9690263351
C        0.3422304982    1.3179675251   -0.1644427812
C        0.1316039148    0.8014225667    1.0732642814
C       -0.0320723711   -0.5613737775    1.5610521578
N       -0.6839020641   -1.5813568481    1.1021751062
C        0.7086640246   -0.5518573677   -1.8190467713
C        0.5508241463    0.7158751018   -1.4813335225
H        0.4107524751    2.4051077579   -0.1901789893
H        0.1724351059    1.5208152733    1.8911676039
H        0.4413391700   -0.7466239180    2.5294171342
H        0.7492708537   -1.5402076239   -1.3849312130
H        0.6268540643    1.4544165940   -2.2838442338
13   
Iteration 24 Energy -340.97145900
C       -1.4378871812   -1.5248223301   -0.0084232427
N       -2.1256398214   -1.6360810580   -0.9487051743
C        0.3211690999    1.3161886755   -0.1713984660
C        0.1461140612    0.7979602571    1.0698958348
C       -0.0127622246   -0.5702793189    1.5466723414
N       -0.6849853029   -1.5770833719    1.0885962132
C        0.7727105267   -0.5600512993   -1.7857229203
C        0.5019145243    0.6980005169   -1.4870439566
H        0.3820095839    2.4037601816   -0.2057234952
H        0.2024612717    1.5122125944    1.8913996695
H        0.4801124085   -0.7720018897    2.5017805299
H        0.9426736225   -1.5136992232   -1.3064551529
H        0.4503035462    1.4097867362   -2.3150674783
13   
Iteration 25 Energy -340.97131740
C       -1.3712494684   -1.4887170507   -0.0498779068
N       -2.0438717822   -1.5796995804   -1.0057572716
C        0.2923903281    1.3007222810   -0.1651112923
C        0.1603714143    0.7975544421    1.0921215693
C       -0.0126496717   -0.5656122297    1.5677202452
N       -0.6626226044   -1.5681594789    1.0690120279
C        0.7591624314   -0.5767388576   -1.7707992174
C        0.4216676032    0.6731171999   -1.4881355867
H        0.3856831389    2.3855322317   -0.2089937110
H        0.2766376724    1.5111257765    1.9073534426
H        0.4339574950   -0.7719513596    2.5421414457
H        1.0210141022   -1.4993285951   -1.2758247871
H        0.2653920138    1.3577802481   -2.3246100920
13   
Iteration 26 Energy -340.97166163
C       -1.4200354982   -1.5040521531   -0.0226176228
N       -2.1130378678   -1.5973239650   -0.9625333969
C        0.2996822825    1.3039464154   -0.1719604675
C        0.1626697651    0.7911575718    1.0796064867
C       -0.0148973596   -0.5693267826    1.5594689128
N       -0.6799535069   -1.5734126808    1.0794481547
C        0.7967638118   -0.5619209829   -1.7825520858
C        0.4512566355    0.6822239356   -1.4904845643
H        0.3729533948    2.3905455519   -0.2112464575
H        0.2612206998    1.5052317277    1.8970593466
H        0.4441943602   -0.7716129658    2.5300102163
H        1.0606533383   -1.4871897454   -1.2914212337
H        0.3100907675    1.3741612420   -2.3241957457
13   
Iteration 27 Energy -340.97169592
C       -1.4106816173   -1.5201679089   -0.0272893279
N       -2.0913403862   -1.6249846081   -0.9746503308
C        0.3075208043    1.3096712675   -0.1708835876
C        0.1694334130    0.7918541924    1.0786485752
C       -0.0215773156   -0.5648792942    1.5612704217
N       -0.6829652872   -1.5735667211    1.0839094327
C        0.7696066935   -0.5599986801   -1.7846727455
C        0.4570538271    0.6912219584   -1.4885138896
H        0.3842529041    2.3963017863   -0.2059447001
H        0.2716243716    1.5055716121    1.8959293501
H        0.4272314644   -0.7620710578    2.5379973712
H        1.0029473368   -1.4953930217   -1.2964960925
H        0.3484426941    1.3915125816   -2.3200744230
13   
Iteration 28 Energy -340.97170603
C       -1.4067040729   -1.5218848785   -0.0284709137
N       -2.0834205239   -1.6270496529   -0.9787934029
C        0.3078330373    1.3076547706   -0.1703031285
C        0.1733095811    0.7907323893    1.0806909908
C       -0.0254204969   -0.5631169372    1.5656992083
N       -0.6850907578   -1.5723914333    1.0861799757
C        0.7683950713   -0.5582279690   -1.7884785146
C        0.4518327224    0.6916187438   -1.4892486456
H        0.3884579841    2.3940797103   -0.2041769570
H        0.2816926555    1.5050683618    1.8965723057
H        0.4141485966   -0.7580738667    2.5469619575
H        1.0117800323   -1.4920412453   -1.3022322410
H        0.3344408140    1.3919547681   -2.3196889263
13   
Iteration 29 Energy -340.97170828
C       -1.4043422006   -1.5234449346   -0.0296067135
N       -2.0770076297   -1.6294921314   -0.9828226547
C        0.3094120028    1.3075382084   -0.1697802527
C        0.1781205503    0.7904707050    1.0818760420
C       -0.0286921515   -0.5613344759    1.5683850084
N       -0.6886117419   -1.5702804879    1.0883084037
C        0.7672754027   -0.5566908110   -1.7886439099
C        0.4447063512    0.6917407908   -1.4894454694
H        0.3952892399    2.3936396254   -0.2029179438
H        0.2936919235    1.5043603650    1.8971219338
H        0.4044565386   -0.7551626874    2.5526816456
H        1.0233543538   -1.4865922276   -1.3013041946
H        0.3147824420    1.3898444236   -2.3199051076
13   
Iteration 30 Energy -340.97170837
C       -1.4033004437   -1.5238384367   -0.0295033423
N       -2.0749253524   -1.6306250449   -0.9834331873
C        0.3101323106    1.3077946299   -0.1692689312
C        0.1779909317    0.7909445271    1.0824968426
C       -0.0293192385   -0.5605774763    1.5694985133
N       -0.6885588572   -1.5696842282    1.0888793794
C        0.7653075170   -0.5564186101   -1.7894030215
C        0.4456146025    0.6925939681   -1.4890961416
H        0.3962202634    2.3938831075   -0.2022085450
H        0.2940629664    1.5048535959    1.8976367187
H        0.4025905626   -0.7537440737    2.5544498804
H        1.0186592252   -1.4875698291   -1.3031267492
H        0.3187835109    1.3918716663   -2.3190404916
13   
Iteration 31 Energy -340.97170846
C       -1.4037980598   -1.5231395281   -0.0289933919
N       -2.0754597696   -1.6299732178   -0.9828989761
C        0.3106346179    1.3083189672   -0.1689119050
C        0.1781842209    0.7915571040    1.0828056814
C       -0.0292538103   -0.5600594109    1.5697435686
N       -0.6888774117   -1.5688667853    1.0892006376
C        0.7654662164   -0.5561932395   -1.7887290079
C        0.4456497253    0.6928329286   -1.4886614275
H        0.3969043460    2.3943893188   -0.2020157297
H        0.2945101829    1.5053497842    1.8980107177
H        0.4029919850   -0.7533764285    2.5545223749
H        1.0190796421   -1.4871164759   -1.3021337907
H        0.3185810482    1.3919218097   -2.3187170179
