13   
Iteration 1 Energy -340.92501873
C       -2.4276615145    0.6361894874    0.2674684002
N       -1.4517803209    1.4272908213    0.2058827812
C        0.8397084856    0.5967718604   -0.3644753015
C       -0.3080141815    0.5754464092    0.6488226554
C       -0.9808977512   -0.7544879502    0.9047683147
N       -2.2537796923   -0.7150957631    0.6825496824
C        1.7707010989   -0.5726459479   -0.5587077465
C        0.9192991918   -0.3689055521   -1.5154604518
H        1.2187683376    1.6143815566   -0.4968582518
H        0.0525719989    0.9914209582    1.6031312430
H       -0.4886025723   -1.6616558460    1.2490869169
H        2.5994925983   -1.1309845735   -0.1483459593
H        0.5101943216   -0.6377254603   -2.4778622828
