13   
Iteration 0 Energy -340.94785118
C       -2.4276615145    0.6361894874    0.2674684002
N       -1.4517803209    1.4272908213    0.2058827812
C        0.8397084856    0.5967718604   -0.3644753015
C       -0.3080141815    0.5754464092    0.6488226554
C       -0.9808977512   -0.7544879502    0.9047683147
N       -2.2537796923   -0.7150957631    0.6825496824
C        1.7707010989   -0.5726459479   -0.5587077465
C        0.9192991918   -0.3689055521   -1.5154604518
H        1.2187683376    1.6143815566   -0.4968582518
H        0.0525719989    0.9914209582    1.6031312430
H       -0.4886025723   -1.6616558460    1.2490869169
H        2.5994925983   -1.1309845735   -0.1483459593
H        0.5101943216   -0.6377254603   -2.4778622828
13   
Iteration 1 Energy -340.94787278
C       -2.4347062229    0.6381724797    0.2709025487
N       -1.4552343117    1.4243372335    0.2049711549
C        0.8396051324    0.5936572430   -0.3650130194
C       -0.3090683472    0.5729161257    0.6480521561
C       -0.9828022986   -0.7554972747    0.9082116212
N       -2.2572528773   -0.7112151361    0.6881463489
C        1.7755962975   -0.5734453336   -0.5611786691
C        0.9244940130   -0.3689550046   -1.5202346318
H        1.2163323283    1.6111967661   -0.4964518847
H        0.0501523296    0.9907290380    1.6018820465
H       -0.4925841086   -1.6623964913    1.2536635319
H        2.6053078377   -1.1295330508   -0.1517298413
H        0.5198111635   -0.6342669386   -2.4846613597
13   
Iteration 2 Energy -340.94788022
C       -2.4341420087    0.6352099576    0.2718494526
N       -1.4557435038    1.4224901148    0.2037141563
C        0.8407124519    0.5958748060   -0.3652578124
C       -0.3085843943    0.5724977505    0.6463868202
C       -0.9822706980   -0.7560358723    0.9065949418
N       -2.2571855404   -0.7136772639    0.6891779517
C        1.7746521279   -0.5734220744   -0.5600283192
C        0.9236086889   -0.3683030034   -1.5196581852
H        1.2184530973    1.6127721525   -0.4976011450
H        0.0487136122    0.9910519765    1.6005413002
H       -0.4916932983   -1.6627174499    1.2512492999
H        2.6030435531   -1.1307381613   -0.1498865009
H        0.5190297293   -0.6332614899   -2.4841022129
13   
Iteration 3 Energy -340.94788310
C       -2.4342945453    0.6334936778    0.2727542581
N       -1.4567894744    1.4214038870    0.2016783552
C        0.8402583028    0.5954891405   -0.3653541850
C       -0.3097062263    0.5714563087    0.6446782195
C       -0.9823078244   -0.7573954148    0.9068894999
N       -2.2574809180   -0.7146462249    0.6917564522
C        1.7747881604   -0.5734857546   -0.5606213943
C        0.9246135756   -0.3678847077   -1.5205949725
H        1.2180091673    1.6124659763   -0.4970263264
H        0.0457548399    0.9911806220    1.5991038203
H       -0.4914657379   -1.6640126162    1.2516428209
H        2.6032973852   -1.1308181000   -0.1504658531
H        0.5221269363   -0.6311482061   -2.4864779899
13   
Iteration 4 Energy -340.94788485
C       -2.4364001435    0.6302950491    0.2737702913
N       -1.4593513559    1.4186175653    0.1990369294
C        0.8401151690    0.5951064911   -0.3656262165
C       -0.3108588382    0.5701208315    0.6423521540
C       -0.9822296587   -0.7587586812    0.9069121820
N       -2.2579138618   -0.7168230473    0.6943383324
C        1.7749007771   -0.5737161644   -0.5614282966
C        0.9258072700   -0.3672266281   -1.5218442665
H        1.2182606110    1.6121125188   -0.4962794586
H        0.0421924314    0.9911363265    1.5973110310
H       -0.4903112589   -1.6648661001    1.2517610513
H        2.6033206671   -1.1312976462   -0.1512003214
H        0.5259454153   -0.6280188999   -2.4895674332
13   
Iteration 5 Energy -340.94788524
C       -2.4384339576    0.6260980183    0.2733192734
N       -1.4622086105    1.4153731999    0.1963679332
C        0.8397670167    0.5950400522   -0.3661017523
C       -0.3121378629    0.5689523935    0.6403264216
C       -0.9814829003   -0.7605140813    0.9066625344
N       -2.2575193946   -0.7201077025    0.6955906459
C        1.7741970958   -0.5740075558   -0.5619579193
C        0.9263355563   -0.3662001315   -1.5231464238
H        1.2185918468    1.6120084697   -0.4953696499
H        0.0388609513    0.9911381521    1.5956540652
H       -0.4878840279   -1.6655937109    1.2518411652
H        2.6020150016   -1.1321422188   -0.1513024499
H        0.5287846426   -0.6245067351   -2.4924688202
13   
Iteration 6 Energy -340.94788530
C       -2.4400666370    0.6218208309    0.2718803340
N       -1.4647254481    1.4121687385    0.1939487783
C        0.8392749327    0.5945384304   -0.3663704562
C       -0.3134971840    0.5679252823    0.6390509817
C       -0.9812815491   -0.7620722591    0.9066165348
N       -2.2573624699   -0.7237830261    0.6955631499
C        1.7739546332   -0.5741601467   -0.5629880599
C        0.9266977764   -0.3652759684   -1.5244678628
H        1.2183966319    1.6116117753   -0.4940352586
H        0.0360982877    0.9913282559    1.5943969206
H       -0.4862834628   -1.6660015245    1.2527338923
H        2.6016663280   -1.1324805318   -0.1524403733
H        0.5307380466   -0.6214443513   -2.4949768047
13   
Iteration 7 Energy -340.94788551
C       -2.4406249246    0.6189989268    0.2700293006
N       -1.4660234234    1.4102641172    0.1927140704
C        0.8388630017    0.5946123566   -0.3664948805
C       -0.3142866435    0.5673870564    0.6387001246
C       -0.9808082821   -0.7633070867    0.9062215308
N       -2.2567431226   -0.7264670430    0.6941547052
C        1.7734811001   -0.5740228517   -0.5634127011
C        0.9263065224   -0.3646382130   -1.5249214614
H        1.2180302328    1.6117810393   -0.4933952493
H        0.0348763876    0.9913648108    1.5939030824
H       -0.4849621435   -1.6665346924    1.2529554775
H        2.6010811594   -1.1325310500   -0.1529303509
H        0.5305368528   -0.6201566147   -2.4956672392
