13   
IRC product Energy -340.92257160
C       -2.1495899583    2.6804897181    0.0197220586
N       -1.4468464948    1.8083780646    0.3866497716
C        0.4773795634    0.5020313962   -0.3244771182
C       -0.5629811436    0.7648711651    0.7855591964
C       -1.3216686321   -0.5022395143    1.1882378630
N       -2.5586921631   -0.6662212247    1.1442003925
C        1.0687243981   -0.8547852580   -0.5871897641
C        0.2097678791   -0.4367417248   -1.4644401509
H        1.0783731571    1.4010536816   -0.4972956888
H       -0.0318835762    1.1098129127    1.6850288912
H       -0.6747272935   -1.3162408080    1.5518531203
H        1.7718068999   -1.6016796855   -0.2490797269
H       -0.3330350650   -0.5749714129   -2.3870328935
