13   
Climbing Image - Chain 5 Image 6 Energy  -340.9212610463 (+1.679 kcal/mol) RMSGrad 0.042 eV/Ang
C       -2.4199702557    1.2914890023   -0.9614291784
N       -1.5640254362    0.9558624380   -0.2233693716
C        0.8536580912    0.4887404925   -0.1956710537
C       -0.4787020933    0.5504761243    0.6025851105
C       -0.7696630610   -0.7747881288    1.3160349426
N       -1.7872934849   -1.4836511468    1.1743505604
C        1.4555181101   -0.8168329889   -0.6435569224
C        0.9014933294   -0.1069264895   -1.5725899076
H        1.5024059914    1.3353815413    0.0501192630
H       -0.3610640666    1.3065915360    1.3903018424
H        0.0321520357   -1.0927321947    2.0025975922
H        1.9950211475   -1.6979042714   -0.3300613157
H        0.6404965170    0.0445400154   -2.6093892596
