13   
Iteration 1 Energy -340.97170775
C       -1.5643521831   -1.3368553975   -0.0818096104
N       -2.2204801601   -1.3706649262   -1.0517678533
C        0.3682292641    1.3565296723   -0.1183280131
C        0.1668344244    0.8233118208    1.1171636559
C       -0.1558926063   -0.5184421106    1.5673217905
N       -0.8804888157   -1.4621856928    1.0496380146
C        0.7183139561   -0.4989413645   -1.7741727653
C        0.4867454609    0.7634189384   -1.4498957164
H        0.5385427334    2.4331256054   -0.1226433585
H        0.3187151210    1.5075135428    1.9516651886
H        0.2373786587   -0.7663400426    2.5562042422
H        0.8894604515   -1.4574825320   -1.3054830718
H        0.4320805899    1.4892805482   -2.2647635625
13   
Iteration 0 Energy -340.97170845
C       -1.5621717333   -1.3358373129   -0.0844289817
N       -2.2177849313   -1.3686745160   -1.0547684713
C        0.3674935641    1.3566796947   -0.1182007825
C        0.1669476480    0.8235000960    1.1174245343
C       -0.1549441732   -0.5188317453    1.5664106878
N       -0.8789600567   -1.4622367857    1.0472961187
C        0.7163357572   -0.5006078155   -1.7720876004
C        0.4850546601    0.7621726066   -1.4492127210
H        0.5375588648    2.4333118860   -0.1232393929
H        0.3187982079    1.5074206516    1.9521623715
H        0.2383445273   -0.7676009655    2.5550670299
H        0.8876314938   -1.4585797039   -1.3023019260
H        0.4296357614    1.4870527855   -2.2648962861
13   
Iteration 24 Energy -340.97170833
C       -1.5625407080   -1.3352060024   -0.0843730907
N       -2.2192947663   -1.3669328696   -1.0539530321
C        0.3666555451    1.3569861549   -0.1183252044
C        0.1663617065    0.8236125970    1.1171971321
C       -0.1540154573   -0.5193054086    1.5656522371
N       -0.8780958730   -1.4626490735    1.0465663044
C        0.7161763350   -0.5011291808   -1.7710967024
C        0.4855961755    0.7619505679   -1.4490051947
H        0.5357945825    2.4337586795   -0.1235461870
H        0.3172778197    1.5075212543    1.9521182241
H        0.2404815665   -0.7685673752    2.5537059706
H        0.8875349837   -1.4588392170   -1.3006704477
H        0.4320076804    1.4865687492   -2.2650454288
13   
Iteration 23 Energy -340.97170751
C       -1.5589706304   -1.3391567423   -0.0851564974
N       -2.2113791836   -1.3753729608   -1.0575858709
C        0.3689317457    1.3569252002   -0.1177186776
C        0.1677591042    0.8238019480    1.1179884009
C       -0.1566152225   -0.5174044818    1.5680591653
N       -0.8790389500   -1.4619911059    1.0487347955
C        0.7114310209   -0.4996136699   -1.7740473536
C        0.4844539829    0.7635026836   -1.4491630713
H        0.5410406554    2.4332423275   -0.1221434765
H        0.3211753102    1.5076852560    1.9524561037
H        0.2333630299   -0.7642688062    2.5584932391
H        0.8805873250   -1.4591015386   -1.3066931291
H        0.4312014027    1.4895207659   -2.2639990476
13   
Iteration 22 Energy -340.97170179
C       -1.5533121655   -1.3468961150   -0.0845934628
N       -2.2008242947   -1.3898196229   -1.0601162030
C        0.3710422063    1.3570849434   -0.1171272931
C        0.1674029146    0.8244009358    1.1187171799
C       -0.1597111190   -0.5148474466    1.5716294532
N       -0.8782125869   -1.4627252457    1.0526041795
C        0.7016874281   -0.4969971064   -1.7799017654
C        0.4857423606    0.7668319462   -1.4497466326
H        0.5466817083    2.4328410419   -0.1198503514
H        0.3224646519    1.5089088090    1.9523494361
H        0.2253672586   -0.7574285563    2.5650259840
H        0.8637008927   -1.4601276897   -1.3178884588
H        0.4419103351    1.4965429820   -2.2618774851
13   
Iteration 21 Energy -340.97168797
C       -1.5465597708   -1.3554363962   -0.0830931995
N       -2.1905252929   -1.4042572459   -1.0607557063
C        0.3728807548    1.3575945841   -0.1163297592
C        0.1647679163    0.8257802300    1.1195059767
C       -0.1616947539   -0.5123885897    1.5751151157
N       -0.8745114224   -1.4647971311    1.0563139103
C        0.6918386989   -0.4942728076   -1.7864139405
C        0.4903442167    0.7703914189   -1.4497503894
H        0.5501912509    2.4330549266   -0.1174216825
H        0.3180902265    1.5117307024    1.9522639918
H        0.2198006970   -0.7503726829    2.5710028742
H        0.8389553843   -1.4635363622   -1.3324166970
H        0.4603616848    1.5042782290   -2.2587959137
13   
Iteration 20 Energy -340.97166453
C       -1.5398237504   -1.3632928806   -0.0810527036
N       -2.1819999158   -1.4162682349   -1.0597206833
C        0.3733905217    1.3581868527   -0.1156275729
C        0.1605040595    0.8275058654    1.1201891150
C       -0.1624121186   -0.5104459029    1.5780364086
N       -0.8688045040   -1.4677620583    1.0592868780
C        0.6816781278   -0.4922467701   -1.7924153411
C        0.4964150318    0.7733823017   -1.4493935215
H        0.5509826227    2.4335693979   -0.1154751723
H        0.3102184652    1.5153164401    1.9520605354
H        0.2173928311   -0.7443379697    2.5755448058
H        0.8121535985   -1.4671624568   -1.3469165919
H        0.4842446207    1.5113242911   -2.2552915755
13   
Iteration 19 Energy -340.97163145
C       -1.5329735743   -1.3700255940   -0.0793846002
N       -2.1742348367   -1.4261275423   -1.0585164237
C        0.3735183615    1.3589163579   -0.1147610860
C        0.1557520359    0.8296035163    1.1210569988
C       -0.1623321704   -0.5086515777    1.5804695663
N       -0.8619612290   -1.4707317178    1.0611958099
C        0.6721766780   -0.4905759315   -1.7976463337
C        0.5028600857    0.7756993665   -1.4484487879
H        0.5505167530    2.4343499553   -0.1138784722
H        0.3008180846    1.5193887084    1.9521066282
H        0.2164959521   -0.7391338903    2.5791495544
H        0.7850701033   -1.4719784474   -1.3607507935
H        0.5082333464    1.5170356721   -2.2513674799
13   
Iteration 18 Energy -340.97158888
C       -1.5262818382   -1.3758266732   -0.0780910836
N       -2.1672489585   -1.4346227638   -1.0572976759
C        0.3731683509    1.3595663347   -0.1137916272
C        0.1508727413    0.8319041896    1.1221434112
C       -0.1618559880   -0.5069173847    1.5826023245
N       -0.8546322780   -1.4734598409    1.0622893773
C        0.6627866013   -0.4897334745   -1.8019808616
C        0.5089240095    0.7771449782   -1.4470412864
H        0.5494341493    2.4350818215   -0.1127156661
H        0.2912290000    1.5236380215    1.9523625068
H        0.2164804018   -0.7346469143    2.5821115810
H        0.7591170650   -1.4755581915   -1.3741250454
H        0.5319463339    1.5211987730   -2.2472413740
13   
Iteration 17 Energy -340.97153749
C       -1.5196339504   -1.3805194620   -0.0775217698
N       -2.1606018064   -1.4418826589   -1.0566207677
C        0.3727627396    1.3603710174   -0.1125987633
C        0.1461980984    0.8344995911    1.1234987918
C       -0.1609940431   -0.5051005542    1.5843584667
N       -0.8469695787   -1.4756403008    1.0623682596
C        0.6540292846   -0.4888617896   -1.8056722082
C        0.5145665823    0.7781394869   -1.4452232097
H        0.5479896266    2.4360061331   -0.1117822221
H        0.2817377717    1.5280542694    1.9529765758
H        0.2169652441   -0.7307907451    2.5844817212
H        0.7342984337   -1.4809487975   -1.3862608661
H        0.5535911876    1.5244426859   -2.2427794278
13   
Iteration 16 Energy -340.97147968
C       -1.5136781030   -1.3843482789   -0.0772114092
N       -2.1547959975   -1.4483178871   -1.0561036461
C        0.3720537241    1.3609577632   -0.1113687990
C        0.1418850736    0.8370749042    1.1250507521
C       -0.1600746853   -0.5033361076    1.5859378833
N       -0.8397875611   -1.4772831846    1.0620255215
C        0.6457836045   -0.4890081553   -1.8084958463
C        0.5193865711    0.7782312523   -1.4430237061
H        0.5464926195    2.4366850921   -0.1112218134
H        0.2731797440    1.5323192294    1.9537634864
H        0.2177841695   -0.7276334842    2.5864261201
H        0.7121793779   -1.4834882265   -1.3980202760
H        0.5735310530    1.5259159588   -2.2385336866
13   
Iteration 15 Energy -340.97141866
C       -1.5082215422   -1.3870933165   -0.0775295048
N       -2.1494625358   -1.4534994037   -1.0562364635
C        0.3714712612    1.3618370478   -0.1100027350
C        0.1382470746    0.8397289867    1.1266513207
C       -0.1589502987   -0.5015752924    1.5870374867
N       -0.8330762414   -1.4782800130    1.0610039813
C        0.6387404478   -0.4885049116   -1.8107650293
C        0.5234676331    0.7783136028   -1.4408599805
H        0.5447986048    2.4376974358   -0.1108369918
H        0.2655749844    1.5362936999    1.9548484448
H        0.2187433420   -0.7250187719    2.5877889985
H        0.6926162798   -1.4895735098   -1.4077465991
H        0.5899905807    1.5274433215   -2.2341283474
13   
Iteration 14 Energy -340.97135030
C       -1.5030218065   -1.3896323852   -0.0779115058
N       -2.1443692727   -1.4587090932   -1.0564298661
C        0.3706996259    1.3624492649   -0.1087394066
C        0.1348668176    0.8421141997    1.1282980471
C       -0.1579514044   -0.4999172858    1.5882698449
N       -0.8267273029   -1.4790836737    1.0599220483
C        0.6319830397   -0.4893238455   -1.8122564639
C        0.5273277608    0.7776128648   -1.4380240893
H        0.5433136556    2.4383849885   -0.1105028183
H        0.2587086745    1.5400970695    1.9557888316
H        0.2195050845   -0.7227534642    2.5892569202
H        0.6738472634   -1.4900754006   -1.4179388054
H        0.6057574548    1.5266056364   -2.2305081562
13   
Iteration 13 Energy -340.97126579
C       -1.4973626528   -1.3918835021   -0.0790537688
N       -2.1391137168   -1.4637944012   -1.0572010161
C        0.3693819281    1.3633686025   -0.1071834366
C        0.1313832088    0.8453147555    1.1304393128
C       -0.1563775355   -0.4978967563    1.5890533525
N       -0.8196438732   -1.4793605036    1.0579901297
C        0.6238939139   -0.4890752459   -1.8139582448
C        0.5305997580    0.7773011123   -1.4359066610
H        0.5408880758    2.4394443716   -0.1106248501
H        0.2515430894    1.5444446345    1.9574732536
H        0.2212106082   -0.7207428185    2.5899991099
H        0.6544501544   -1.4973102655   -1.4265124866
H        0.6230866318    1.5279588924   -2.2252901139
13   
Iteration 12 Energy -340.97116690
C       -1.4918083173   -1.3945414134   -0.0798976936
N       -2.1334861076   -1.4689838475   -1.0579519781
C        0.3678257810    1.3652169705   -0.1052071549
C        0.1285615865    0.8486107192    1.1326246202
C       -0.1550339666   -0.4956699540    1.5897292641
N       -0.8135909164   -1.4794093621    1.0568481142
C        0.6181350700   -0.4910747509   -1.8157246486
C        0.5342697550    0.7750156946   -1.4311010804
H        0.5379025677    2.4414492369   -0.1111543635
H        0.2452345475    1.5483840038    1.9595710921
H        0.2221616244   -0.7180915625    2.5909198128
H        0.6343639377   -1.4985459251   -1.4397978028
H        0.6394040283    1.5254090659   -2.2196336009
13   
Iteration 11 Energy -340.97105958
C       -1.4864773387   -1.3967879676   -0.0815012740
N       -2.1286947869   -1.4730055891   -1.0591036474
C        0.3665009807    1.3674759069   -0.1035288416
C        0.1265136193    0.8514699684    1.1341860646
C       -0.1535934799   -0.4939135601    1.5895455618
N       -0.8083623089   -1.4795358609    1.0553140855
C        0.6125106721   -0.4916700607   -1.8178127984
C        0.5367347658    0.7730684122   -1.4263829537
H        0.5353796919    2.4438177883   -0.1116507088
H        0.2402083513    1.5512811299    1.9614777146
H        0.2231095288   -0.7159931719    2.5909926756
H        0.6171780741   -1.5007247103   -1.4477028093
H        0.6529318208    1.5222865906   -2.2146084884
13   
Iteration 10 Energy -340.97072176
C       -1.4776066139   -1.3987509869   -0.0796029668
N       -2.1212499269   -1.4782330467   -1.0560673340
C        0.3642626821    1.3747292371   -0.0983195662
C        0.1229191907    0.8582254967    1.1383975873
C       -0.1533080704   -0.4881952316    1.5933365908
N       -0.8036635085   -1.4772706209    1.0599575369
C        0.6059606988   -0.4927092250   -1.8053400258
C        0.5399663117    0.7709065519   -1.4147109560
H        0.5304814069    2.4513762164   -0.1099659553
H        0.2313294587    1.5579959342    1.9664132799
H        0.2206955506   -0.7069709870    2.5965132456
H        0.6015133193   -1.5288240048   -1.5156946148
H        0.6726390910    1.5154895423   -2.2056922410
13   
Iteration 9 Energy -340.97013727
C       -1.4746725744   -1.3987340383   -0.0752503563
N       -2.1186547647   -1.4802397336   -1.0513697199
C        0.3634004069    1.3783969213   -0.0949846514
C        0.1209445485    0.8619304546    1.1413985176
C       -0.1548237716   -0.4841799511    1.5981738944
N       -0.8040210159   -1.4748921954    1.0664655219
C        0.6043268768   -0.4947308808   -1.7902176851
C        0.5415372042    0.7698871278   -1.4082147538
H        0.5285213279    2.4552007000   -0.1080758659
H        0.2270688252    1.5624110267    1.9691225362
H        0.2172004235   -0.7001810433    2.6026904774
H        0.6032503417   -1.5482381435   -1.5781865672
H        0.6798617622    1.5111386313   -2.2023267674
13   
Iteration 8 Energy -340.96956638
C       -1.4736286135   -1.3985926659   -0.0715044045
N       -2.1175750631   -1.4815158981   -1.0475672026
C        0.3630551088    1.3799171018   -0.0929550031
C        0.1196412729    0.8640936395    1.1435250022
C       -0.1562985434   -0.4815415643    1.6020493053
N       -0.8050301855   -1.4731806560    1.0715665945
C        0.6035194121   -0.4970111683   -1.7785618175
C        0.5425959886    0.7689208977   -1.4046888676
H        0.5277573466    2.4567959005   -0.1069579417
H        0.2245686397    1.5654328672    1.9706887741
H        0.2144669386   -0.6956745183    2.6074382912
H        0.6072729453   -1.5581179948   -1.6228904084
H        0.6835943430    1.5082429346   -2.2009177414
13   
Iteration 7 Energy -340.96911431
C       -1.4732417170   -1.3984807492   -0.0686765244
N       -2.1170646336   -1.4823961719   -1.0447652993
C        0.3629004335    1.3805702859   -0.0916566165
C        0.1187546430    0.8654575432    1.1450235771
C       -0.1574553408   -0.4797657235    1.6048897197
N       -0.8059627148   -1.4719826863    1.0752710064
C        0.6030117707   -0.4989059405   -1.7701245415
C        0.5433455151    0.7680758271   -1.4026543805
H        0.5274371844    2.4574883405   -0.1063204742
H        0.2229771207    1.5675230026    1.9716722272
H        0.2124879505   -0.6926315612    2.6108576488
H        0.6109362211   -1.5634722181   -1.6541041856
H        0.6858131574    1.5062889271   -2.2001875768
13   
Iteration 6 Energy -340.96877931
C       -1.4730399629   -1.3983632927   -0.0666440803
N       -2.1167551175   -1.4829696626   -1.0427652962
C        0.3627974962    1.3809820310   -0.0907424545
C        0.1181288726    0.8664187926    1.1461003909
C       -0.1582925979   -0.4785020041    1.6069196625
N       -0.8066570608   -1.4711098674    1.0778988538
C        0.6026515283   -0.5001545263   -1.7640606914
C        0.5438706969    0.7674954905   -1.4013615695
H        0.5272382800    2.4579275233   -0.1058891449
H        0.2218826282    1.5690205359    1.9723627117
H        0.2110920563   -0.6904940287    2.6132841258
H        0.6137751349   -1.5675530965   -1.6762706810
H        0.6872476359    1.5050709806   -2.1996072464
13   
Iteration 5 Energy -340.96853798
C       -1.4728965550   -1.3982358795   -0.0652251429
N       -2.1165399376   -1.4833118299   -1.0413702909
C        0.3627125336    1.3813167912   -0.0900833584
C        0.1176831548    0.8671221338    1.1468848837
C       -0.1588736428   -0.4775965742    1.6083477333
N       -0.8071326297   -1.4704706346    1.0797267765
C        0.6023930374   -0.5008400841   -1.7597701128
C        0.5442203048    0.7671681467   -1.4004515141
H        0.5270716571    2.4582778455   -0.1055118804
H        0.2211086531    1.5700859337    1.9728863982
H        0.2101285084   -0.6889979348    2.6149807482
H        0.6158568583   -1.5709840737   -1.6919613204
H        0.6882076478    1.5042350355   -2.1992283393
13   
Iteration 4 Energy -340.96836830
C       -1.4728444460   -1.3981315826   -0.0642452936
N       -2.1164235283   -1.4835226012   -1.0404151616
C        0.3626589220    1.3815056011   -0.0896318137
C        0.1173846893    0.8675955712    1.1474130974
C       -0.1592800989   -0.4769737822    1.6093226332
N       -0.8074766799   -1.4700218559    1.0809699512
C        0.6022172028   -0.5012807374   -1.7567951305
C        0.5444669199    0.7669437718   -1.3999784954
H        0.5269854627    2.4584809058   -0.1053229488
H        0.2206075787    1.5708295131    1.9732160250
H        0.2094760252   -0.6879779724    2.6161333936
H        0.6174068222   -1.5736315146   -1.7026451228
H        0.6887607206    1.5039535588   -2.1987965536
13   
Iteration 3 Energy -340.96821096
C       -1.4729674647   -1.3984764985   -0.0630483152
N       -2.1164146158   -1.4843316860   -1.0392774776
C        0.3627985758    1.3810117077   -0.0895067696
C        0.1171443310    0.8676872550    1.1477504988
C       -0.1598236243   -0.4766061449    1.6103754535
N       -0.8080604357   -1.4698555539    1.0824768285
C        0.6021234934   -0.5036303923   -1.7539777761
C        0.5448515751    0.7657600189   -1.3994149447
H        0.5272282273    2.4579906928   -0.1055753857
H        0.2202072939    1.5713319788    1.9732272809
H        0.2086041607   -0.6870499328    2.6174245596
H        0.6184867811   -1.5683638644   -1.7119015936
H        0.6897612924    1.5023012952   -2.1993277783
13   
Iteration 2 Energy -340.96716755
C       -1.4729687979   -1.3980852746   -0.0558522222
N       -2.1158352270   -1.4862762654   -1.0323173853
C        0.3626327412    1.3815549436   -0.0866213364
C        0.1151025429    0.8706594572    1.1513224727
C       -0.1628773054   -0.4724385047    1.6173617463
N       -0.8108088335   -1.4668831403    1.0915098289
C        0.6008888597   -0.5085100790   -1.7327454628
C        0.5467130185    0.7633770593   -1.3963297960
H        0.5270240186    2.4585651759   -0.1047839377
H        0.2168312138    1.5764105485    1.9751961760
H        0.2038106695   -0.6799518486    2.6256810105
H        0.6296943945   -1.5798495088   -1.7863769193
H        0.6937322953    1.4991963125   -2.1968195944
13   
Iteration 1 Energy -340.96652777
C       -1.4736514720   -1.3985809863   -0.0485951898
N       -2.1157731353   -1.4891787753   -1.0254082272
C        0.3628761691    1.3802608066   -0.0848757714
C        0.1132786819    0.8724610737    1.1542324056
C       -0.1661197617   -0.4692136501    1.6241584909
N       -0.8140271823   -1.4647148549    1.1004615532
C        0.5999633623   -0.5163621309   -1.7137086516
C        0.5485946018    0.7590145397   -1.3930413265
H        0.5278221956    2.4571958867   -0.1049561194
H        0.2141543333    1.5805593324    1.9762299741
H        0.1988481166   -0.6737836049    2.6337177832
H        0.6400752227   -1.5714879017   -1.8514041817
H        0.6978984583    1.4915991405   -2.1975861589
13   
Iteration 0 Energy -340.96631157
C       -1.4746350976   -1.3987824917   -0.0416531518
N       -2.1158650539   -1.4916205386   -1.0188923312
C        0.3631844634    1.3789365838   -0.0830289542
C        0.1117184613    0.8743355280    1.1572532578
C       -0.1690708113   -0.4660546086    1.6305322362
N       -0.8171361958   -1.4623834393    1.1088339765
C        0.5992301011   -0.5239607827   -1.6950053197
C        0.5506221204    0.7553509722   -1.3917894773
H        0.5282069454    2.4558667438   -0.1051363322
H        0.2112843035    1.5847709742    1.9774242298
H        0.1945006276   -0.6680819032    2.6411294349
H        0.6504018985   -1.5676663865   -1.9134438108
H        0.7014978276    1.4870582242   -2.1969991775
13   
Iteration 1 Energy -340.96653539
C       -1.4757513534   -1.3995447127   -0.0345895878
N       -2.1160064982   -1.4948061671   -1.0122880198
C        0.3637862043    1.3766570554   -0.0817395843
C        0.1102814516    0.8757321308    1.1598721205
C       -0.1721356187   -0.4631884588    1.6368667802
N       -0.8204733794   -1.4603805434    1.1173829289
C        0.5986772489   -0.5332328906   -1.6763552743
C        0.5529318707    0.7499964130   -1.3908941426
H        0.5289323855    2.4535618964   -0.1062883841
H        0.2085825945    1.5887361702    1.9779967962
H        0.1899688178   -0.6624497224    2.6485624238
H        0.6596177761   -1.5539726800   -1.9723928407
H        0.7055280904    1.4806603848   -2.1969086354
13   
Iteration 2 Energy -340.96726978
C       -1.4767818876   -1.4000705738   -0.0270742121
N       -2.1162004976   -1.4976991817   -1.0051605351
C        0.3641857033    1.3748695583   -0.0801372150
C        0.1084976514    0.8773775783    1.1627882681
C       -0.1755503350   -0.4599866981    1.6438193555
N       -0.8239662068   -1.4581539293    1.1265098473
C        0.5976052325   -0.5416766291   -1.6570318524
C        0.5548098384    0.7455108188   -1.3874642583
H        0.5299311008    2.4516085107   -0.1065791674
H        0.2060039638    1.5928870481    1.9788496881
H        0.1848580422   -0.6562567409    2.6567062566
H        0.6711299769   -1.5417894605   -2.0378252963
H        0.7094170079    1.4711485748   -2.1981762986
13   
Iteration 3 Energy -340.96859007
C       -1.4783168280   -1.4017851727   -0.0186152675
N       -2.1166592320   -1.5023863443   -0.9971778303
C        0.3652430620    1.3711902803   -0.0795441926
C        0.1069189047    0.8782758665    1.1649513012
C       -0.1794948878   -0.4569197114    1.6511006345
N       -0.8283002790   -1.4562831916    1.1367752896
C        0.5965468747   -0.5555300034   -1.6357473747
C        0.5574098826    0.7373666680   -1.3854385527
H        0.5318827669    2.4476811886   -0.1089559647
H        0.2036176289    1.5969928109    1.9782697445
H        0.1789086227   -0.6493732766    2.6654496614
H        0.6819517255   -1.5096397093   -2.1027359679
H        0.7142313489    1.4581794707   -2.1991069004
13   
Iteration 4 Energy -340.97027438
C       -1.4797438663   -1.4031653648   -0.0096598927
N       -2.1170131192   -1.5066382712   -0.9887156096
C        0.3661458473    1.3680958042   -0.0784157878
C        0.1051143169    0.8796269680    1.1677812622
C       -0.1836317856   -0.4534173431    1.6590279028
N       -0.8327059489   -1.4540322457    1.1476051660
C        0.5954600187   -0.5676496180   -1.6135228755
C        0.5597587355    0.7296512903   -1.3816261303
H        0.5335191461    2.4443438788   -0.1102329375
H        0.2008681366    1.6014701736    1.9784980673
H        0.1725802506   -0.6420010425    2.6748540922
H        0.6943929591   -1.4819032934   -2.1752217741
H        0.7191948998    1.4433879392   -2.2011469025
13   
Iteration 5 Energy -340.97030479
C       -1.4797749937   -1.4032260566   -0.0095484010
N       -2.1170296559   -1.5067475364   -0.9886091658
C        0.3661798950    1.3679911124   -0.0784602424
C        0.1051068022    0.8796057573    1.1677662823
C       -0.1836881173   -0.4533967376    1.6591081522
N       -0.8327783194   -1.4540302194    1.1477433098
C        0.5954496946   -0.5679967352   -1.6132885512
C        0.5598014420    0.7294695375   -1.3816145966
H        0.5335776618    2.4442313528   -0.1103277427
H        0.2008568706    1.6015015810    1.9784315816
H        0.1724904984   -0.6419137978    2.6749594316
H        0.6944671397   -1.4807375173   -2.1757351155
H        0.7192806722    1.4430181349   -2.2012003618
13   
Iteration 6 Energy -340.97034739
C       -1.4798177758   -1.4032977946   -0.0093661298
N       -2.1170498281   -1.5068900111   -0.9884356130
C        0.3662210106    1.3678624329   -0.0784969450
C        0.1050853076    0.8795948879    1.1677725633
C       -0.1837771873   -0.4533483419    1.6592506933
N       -0.8328858619   -1.4540104483    1.1479667978
C        0.5954295938   -0.5684419220   -1.6128794633
C        0.5598611943    0.7292271177   -1.3815687648
H        0.5336496270    2.4440926120   -0.1104313355
H        0.2008248162    1.6015674996    1.9783655533
H        0.1723498096   -0.6417681380    2.6751387413
H        0.6946431486   -1.4793328476   -2.1768209596
H        0.7194057358    1.4425138290   -2.2012705576
13   
Iteration 7 Energy -340.97040634
C       -1.4798767632   -1.4033918545   -0.0090997446
N       -2.1170764424   -1.5070836580   -0.9881821222
C        0.3662751342    1.3676919770   -0.0785357613
C        0.1050501783    0.8795884643    1.1677940488
C       -0.1839061690   -0.4532716525    1.6594635923
N       -0.8330385975   -1.4539750972    1.1482924672
C        0.5953991215   -0.5690416336   -1.6122717234
C        0.5599438801    0.7288929274   -1.3814889683
H        0.5337449983    2.4439087684   -0.1105618193
H        0.2007726281    1.6016696594    1.9782862932
H        0.1721464319   -0.6415538632    2.6754038823
H        0.6949218539   -1.4774825406   -2.1785079065
H        0.7195833361    1.4418173787   -2.2013676575
13   
Iteration 8 Energy -340.97048827
C       -1.4799574265   -1.4035129055   -0.0087117354
N       -2.1171109705   -1.5073440783   -0.9878131513
C        0.3663450980    1.3674698543   -0.0785702130
C        0.1049935015    0.8795930887    1.1678436277
C       -0.1840922905   -0.4531511389    1.6597804761
N       -0.8332544977   -1.4539140848    1.1487654016
C        0.5953530870   -0.5698392715   -1.6113720635
C        0.5600573661    0.7284355493   -1.3813533168
H        0.5338693591    2.4436690400   -0.1107208553
H        0.2006887786    1.6018270049    1.9781965546
H        0.1718534772   -0.6412396957    2.6757946300
H        0.6953597100   -1.4750881387   -2.1811132414
H        0.7198343980    1.4408636518   -2.2015015328
13   
Iteration 9 Energy -340.97060283
C       -1.4800672355   -1.4036677628   -0.0081507975
N       -2.1171554319   -1.5076929930   -0.9872800326
C        0.3664348889    1.3671823094   -0.0785916861
C        0.1049045275    0.8796174384    1.1679386430
C       -0.1843592224   -0.4529657249    1.6602472305
N       -0.8335582833   -1.4538138980    1.1494473097
C        0.5952844369   -0.5708947361   -1.6100535001
C        0.5602122820    0.7278104010   -1.3811308742
H        0.5340305462    2.4433585550   -0.1109111901
H        0.2005578068    1.6020652533    1.9780999247
H        0.1714339521   -0.6407827143    2.6763654171
H        0.6960333552   -1.4720092624   -2.1850690580
H        0.7201879677    1.4395620099   -2.2016868060
13   
Iteration 10 Energy -340.97076377
C       -1.4802170838   -1.4038692111   -0.0073470693
N       -2.1172132763   -1.5081642849   -0.9865164106
C        0.3665516444    1.3668059218   -0.0785926535
C        0.1047697714    0.8796704270    1.1680989221
C       -0.1847396520   -0.4526883823    1.6609249287
N       -0.8339848882   -1.4536581585    1.1504225759
C        0.5951838508   -0.5723030977   -1.6081465834
C        0.5604239993    0.7269484961   -1.3807805686
H        0.5342420334    2.4429517837   -0.1111428295
H        0.2003606451    1.6024173011    1.9779962380
H        0.1708363714   -0.6401243218    2.6771892955
H        0.6970406477   -1.4679921486   -2.1909349641
H        0.7206855269    1.4377745508   -2.2019463007
13   
Iteration 11 Energy -340.97098980
C       -1.4804230613   -1.4041418793   -0.0062039978
N       -2.1172902366   -1.5088131895   -0.9854303290
C        0.3667084872    1.3662999298   -0.0785709846
C        0.1045727767    0.8797590682    1.1683443172
C       -0.1852797563   -0.4522845163    1.6618952516
N       -0.8345850277   -1.4534280575    1.1518086551
C        0.5950395157   -0.5742213111   -1.6054250064
C        0.5607151112    0.7257375500   -1.3802453339
H        0.5345277675    2.4424042152   -0.1114418892
H        0.2000748451    1.6029248913    1.9778755099
H        0.1699871338   -0.6391824198    2.6783657837
H        0.6985037602   -1.4625619064   -2.1994321121
H        0.7213882746    1.4352765011   -2.2023152840
13   
Iteration 12 Energy -340.97130543
C       -1.4807098258   -1.4045406248   -0.0045931456
N       -2.1173977470   -1.5097405440   -0.9838985166
C        0.3669336240    1.3655828999   -0.0785528036
C        0.1042988881    0.8798757884    1.1686754307
C       -0.1860430776   -0.4517168999    1.6632578985
N       -0.8354335544   -1.4531106913    1.1537641859
C        0.5948386817   -0.5769493149   -1.6016120769
C        0.5611186434    0.7239839754   -1.3794520377
H        0.5349359128    2.4416279545   -0.1118784566
H        0.1996816389    1.6036321738    1.9776895970
H        0.1687817343   -0.6378459290    2.6800224228
H        0.7005415509   -1.4546739527   -2.2113463468
H        0.7223931209    1.4316440400   -2.2028515705
13   
Iteration 13 Energy -340.97173993
C       -1.4811038490   -1.4051160379   -0.0023210878
N       -2.1175439477   -1.5110537466   -0.9817358700
C        0.3672515407    1.3645843279   -0.0785284457
C        0.1039152388    0.8800383908    1.1691327882
C       -0.1871236764   -0.4509113934    1.6651759595
N       -0.8366310547   -1.4526669631    1.1565263199
C        0.5945562152   -0.5807793782   -1.5962616752
C        0.5616743927    0.7214427180   -1.3782474598
H        0.5355131075    2.4405436421   -0.1125082545
H        0.1991395633    1.6046215464    1.9774244984
H        0.1670661491   -0.6359389735    2.6823596858
H        0.7034051909   -1.4433837355   -2.2281726325
H        0.7238207199    1.4263884786   -2.2036192457
13   
Iteration 14 Energy -340.97232042
C       -1.4816420450   -1.4060320130    0.0008281810
N       -2.1177529150   -1.5130014537   -0.9787285319
C        0.3677383779    1.3631126909   -0.0786261729
C        0.1034198455    0.8801908329    1.1696336145
C       -0.1886334416   -0.4498207768    1.6677889463