13   
IRC reactant Energy -340.97170845
C       -1.5621717333   -1.3358373129   -0.0844289817
N       -2.2177849313   -1.3686745160   -1.0547684713
C        0.3674935641    1.3566796947   -0.1182007825
C        0.1669476480    0.8235000960    1.1174245343
C       -0.1549441732   -0.5188317453    1.5664106878
N       -0.8789600567   -1.4622367857    1.0472961187
C        0.7163357572   -0.5006078155   -1.7720876004
C        0.4850546601    0.7621726066   -1.4492127210
H        0.5375588648    2.4333118860   -0.1232393929
H        0.3187982079    1.5074206516    1.9521623715
H        0.2383445273   -0.7676009655    2.5550670299
H        0.8876314938   -1.4585797039   -1.3023019260
H        0.4296357614    1.4870527855   -2.2648962861
13   
IRC product Energy -340.97461262
C       -1.4504285477   -1.4227774455    0.0118896181
N       -2.0833934107   -1.5390217819   -0.9697955533
C        0.3720341102    1.3509831741   -0.0713854786
C        0.0958526828    0.8910635348    1.1828811505
C       -0.2029750382   -0.4305394614    1.6927636574
N       -0.8273257050   -1.4483480426    1.1816080799
C        0.5541482518   -0.6343311253   -1.5724218060
C        0.5626905617    0.6719249705   -1.3421720113
H        0.5525700781    2.4236938443   -0.1273471262
H        0.1900300171    1.6272578593    1.9802183394
H        0.1236081947   -0.5959279838    2.7223633255
H        0.6789448654   -1.2773698228   -2.4331541985
H        0.7681835299    1.3411611558   -2.1862234164
