13   
IRC reactant Energy -340.92257145
C       -1.7078533503    2.6144673125   -0.2531822656
N       -1.0689695789    1.7169682995    0.1656151440
C        0.8168546623    0.2999954425   -0.4255028724
C       -0.2602444967    0.6390318652    0.6273515897
C       -1.1015983744   -0.5789756693    1.0171951566
N       -2.3426486397   -0.6786754211    0.9228494202
C        1.3509229739   -1.0899223002   -0.6316893909
C        0.5566707245   -0.6499975486   -1.5578683775
H        1.4698814816    1.1641331209   -0.5871657885
H        0.2445023320    0.9761831365    1.5447936583
H       -0.5148266465   -1.4187289203    1.4219191998
H        1.9987949190   -1.8626978094   -0.2449288551
H        0.0521275555   -0.7821072034   -2.5028056322
