13   
Iteration 0 Energy -340.92257145
C       -1.7078533503    2.6144673125   -0.2531822656
N       -1.0689695789    1.7169682995    0.1656151440
C        0.8168546623    0.2999954425   -0.4255028724
C       -0.2602444967    0.6390318652    0.6273515897
C       -1.1015983744   -0.5789756693    1.0171951566
N       -2.3426486397   -0.6786754211    0.9228494202
C        1.3509229739   -1.0899223002   -0.6316893909
C        0.5566707245   -0.6499975486   -1.5578683775
H        1.4698814816    1.1641331209   -0.5871657885
H        0.2445023320    0.9761831365    1.5447936583
H       -0.5148266465   -1.4187289203    1.4219191998
H        1.9987949190   -1.8626978094   -0.2449288551
H        0.0521275555   -0.7821072034   -2.5028056322
13   
Iteration 1 Energy -340.92257148
C       -1.7080016517    2.6146171948   -0.2533342765
N       -1.0690846622    1.7170337569    0.1652374023
C        0.8170758189    0.2999859137   -0.4256945310
C       -0.2602282168    0.6391540197    0.6269204899
C       -1.1016092383   -0.5787902577    1.0167530574
N       -2.3425868512   -0.6783507099    0.9212963859
C        1.3509262125   -1.0900651870   -0.6315676183
C        0.5569046442   -0.6501325734   -1.5579453369
H        1.4702541265    1.1640024156   -0.5873682080
H        0.2443082740    0.9763562725    1.5444541915
H       -0.5150927481   -1.4184573609    1.4220864728
H        1.9985748400   -1.8629108916   -0.2445722688
H        0.0524638378   -0.7823145028   -2.5029280583
