13   
step_03 start
C       -2.3707086282    1.3718714715    1.5298364862
N       -2.7562524181    2.4259910291    1.8621129300
C        1.0308902091    0.4851882609   -0.7793303823
C       -0.1147016773    0.8003514694   -0.1211246752
C       -1.0090264126   -0.1559865196    0.4926128296
N       -2.0473168166    0.1114532364    1.2259350232
C        1.4864954338   -1.9156555089   -0.2219245547
C        1.6592399589   -0.8267011042   -0.9551506069
H        1.5645150636    1.3059764831   -1.2538836677
H       -0.4081596695    1.8462164685   -0.0674816297
H       -0.8243615302   -1.2154156928    0.3182784638
H        1.8754427537   -2.9250231113   -0.1994385891
H        2.3836259952   -0.8818927068   -1.7775648702
13   
step_03 end
C       -3.8429267359    0.6632029354    1.1996566241
N       -4.4616507573    1.6270170459    1.4411975762
C        0.3413817442    0.2886506071    0.8666115975
C       -1.0060266021    0.4395442127    0.9794058135
C       -1.9775703106   -0.6169561279    0.8153343644
N       -3.2686072540   -0.5095761121    0.9167810306
C        2.3947337199   -0.9847552517    0.4753067817
C        1.0727241063   -0.9331925253    0.5655099459
H        0.9599167060    1.1706290744    1.0151270412
H       -1.3984396747    1.4266602971    1.2109647361
H       -1.6282444659   -1.6213327717    0.5815081698
H        3.1531648278   -1.7291236411    0.2731405411
H        0.5100152107   -1.8583029781    0.4046104358
