13   
step_01 start
C       -3.0389482493    1.6230784578   -0.4351520380
N       -3.4159583109    2.7053610709   -0.6956906272
C        0.8312814949   -0.0896539240   -1.2921005210
C       -0.4790809687    0.5130535886   -1.0092335717
C       -1.5317927091   -0.1274942711   -0.3600493546
N       -2.7351272323    0.3848041576   -0.0862906998
C        1.4283236506   -1.1665842312   -0.3856431832
C        0.9873803222   -1.5938060909   -1.5175144665
H        1.5185943541    0.5800796380   -1.8125292523
H       -0.6357777885    1.5403974293   -1.3344710776
H       -1.4004228479   -1.1543877336   -0.0242861424
H        1.8655277492   -1.3226896732    0.5892003704
H        0.7708122594   -2.3836178281   -2.2211798239
13   
step_01 end
C       -1.4839282336   -1.5927572915    0.0440473338
N       -1.7258078070   -2.1679707571   -0.9558374350
C        0.6021652703    0.9718166322   -0.5139431228
C       -0.0026093527    0.9939395991    0.8260451950
C       -0.7527403908    0.0686381205    1.5613935580
N       -1.3484616105   -1.0779211943    1.2403311320
C        1.6349494006   -0.1056242274   -0.8908378521
C        0.5153192801   -0.1622454033   -1.5225190575
H        0.7879821195    1.9824664759   -0.8893572567
H        0.2264191019    1.8983660934    1.3902060771
H       -0.8955733959    0.3264751756    2.6108710027
H        2.6272327268   -0.4565302561   -0.6550195816
H       -0.1492386456   -0.6302063370   -2.2310511089
