13   
Iteration 2 Energy -340.96809783
C       -1.4761339403   -1.6035987713    0.0488098719
N       -1.7141454460   -2.1847282225   -0.9485770898
C        0.6005725540    0.9693623056   -0.5156245106
C       -0.0082954375    0.9944146012    0.8222562146
C       -0.7558980730    0.0686448612    1.5598132898
N       -1.3449607511   -1.0823601150    1.2427686564
C        1.6273673166   -0.1134719312   -0.8928075198
C        0.5082408525   -0.1633767638   -1.5257513291
H        0.7921100579    1.9791930317   -0.8902568231
H        0.2145161034    1.9024244058    1.3830845157
H       -0.9025603260    0.3306767468    2.6077293350
H        2.6171958462   -0.4704578259   -0.6557599907
H       -0.1580087567   -0.6267223225   -2.2356846203
