13   
Iteration 0 Energy -340.98994648
C       -1.4761339403   -1.6035987713    0.0488098719
N       -1.7141454460   -2.1847282225   -0.9485770898
C        0.6005725540    0.9693623056   -0.5156245106
C       -0.0082954375    0.9944146012    0.8222562146
C       -0.7558980730    0.0686448612    1.5598132898
N       -1.3449607511   -1.0823601150    1.2427686564
C        1.6273673166   -0.1134719312   -0.8928075198
C        0.5082408525   -0.1633767638   -1.5257513291
H        0.7921100579    1.9791930317   -0.8902568231
H        0.2145161034    1.9024244058    1.3830845157
H       -0.9025603260    0.3306767468    2.6077293350
H        2.6171958462   -0.4704578259   -0.6557599907
H       -0.1580087567   -0.6267223225   -2.2356846203
13   
Iteration 1 Energy -340.98892580
C       -1.5639858576   -1.6503452574    0.1078623361
N       -1.8507700047   -2.2574365568   -0.8609781302
C        0.6199806748    0.9795918182   -0.5254932262
C       -0.0100561510    0.9675944951    0.8029305562
C       -0.7643547654    0.0534377313    1.5524738672
N       -1.3804747727   -1.0966380882    1.2802040543
C        1.6728819207   -0.0790846523   -0.9092800909
C        0.5698752438   -0.1239077150   -1.5724662973
H        0.8071353437    2.0004563845   -0.8686155721
H        0.2048363574    1.8733289335    1.3699939217
H       -0.8948565206    0.3362247969    2.5965332263
H        2.6616264534   -0.4278918292   -0.6588999206
H       -0.0704481450   -0.5734561397   -2.3137694146
13   
Iteration 2 Energy -340.98976507
C       -1.5140473260   -1.6295352630    0.0765939342
N       -1.7693223216   -2.2281712053   -0.9062021049
C        0.6123416606    0.9765385356   -0.5192766321
C       -0.0081455533    0.9829611759    0.8136129714
C       -0.7626107980    0.0635880112    1.5554297364
N       -1.3651110020   -1.0873946759    1.2591803832
C        1.6473747577   -0.0985985579   -0.9023923393
C        0.5338470481   -0.1423223374   -1.5473502953
H        0.8045256132    1.9913392123   -0.8781082035
H        0.2133473955    1.8880785672    1.3792761441
H       -0.9041435467    0.3364157853    2.6008895644
H        2.6357179231   -0.4553737307   -0.6609376336
H       -0.1234460096   -0.5970834694   -2.2705986840
13   
Iteration 3 Energy -340.98993405
C       -1.4948814939   -1.6169577264    0.0624440406
N       -1.7412932334   -2.2072331876   -0.9276161299
C        0.6066534644    0.9732450855   -0.5173987324
C       -0.0080367178    0.9890685410    0.8180424918
C       -0.7593747071    0.0663084770    1.5576939265
N       -1.3551930936   -1.0849139936    1.2507094822
C        1.6373279493   -0.1061496786   -0.8976214905
C        0.5206868921   -0.1527918522   -1.5364280592
H        0.7986954877    1.9854644892   -0.8842124938
H        0.2142645156    1.8955266272    1.3813702804
H       -0.9036680765    0.3336444515    2.6043537025
H        2.6263136544   -0.4632440065   -0.6584945591
H       -0.1413667228   -0.6117947462   -2.2527968697
13   
Iteration 4 Energy -340.98996927
C       -1.4855140720   -1.6096357898    0.0552578213
N       -1.7281499351   -2.1947121419   -0.9388851471
C        0.6032240685    0.9712403771   -0.5165461129
C       -0.0083421136    0.9913626478    0.8200315595
C       -0.7579714402    0.0677032933    1.5609738540
N       -1.3501337574   -1.0837972932    1.2468644523
C        1.6333273051   -0.1100642784   -0.8955603672
C        0.5147225181   -0.1585768701   -1.5317587596
H        0.7945981909    1.9818690617   -0.8872604765
H        0.2141802650    1.8989360047    1.3813928130
H       -0.9033395059    0.3322966527    2.6080129007
H        2.6226438364   -0.4663624424   -0.6574618804
H       -0.1490039845   -0.6199167590   -2.2449890640
13   
Iteration 5 Energy -340.98997428
C       -1.4854280530   -1.6050143514    0.0508061663
N       -1.7330258269   -2.1850154266   -0.9451199287
C        0.6004056023    0.9707110500   -0.5160659553
C       -0.0078811313    0.9944316981    0.8214647272
C       -0.7541477018    0.0665766253    1.5610327231
N       -1.3448882816   -1.0850346731    1.2442136955
C        1.6334443334   -0.1106422235   -0.8928095457
C        0.5143447386   -0.1630489043   -1.5280980673
H        0.7902105915    1.9797280018   -0.8908228633
H        0.2115606588    1.9036508831    1.3814474180
H       -0.8984998813    0.3273019996    2.6088055903
H        2.6237192096   -0.4633557659   -0.6541839824
H       -0.1482407472   -0.6279001273   -2.2400471421
13   
Iteration 6 Energy -340.98997500
C       -1.4878254327   -1.6006204360    0.0496026225
N       -1.7391618170   -2.1764918938   -0.9478252562
C        0.5989544884    0.9702391997   -0.5165478975
C       -0.0087095826    0.9920753165    0.8208205263
C       -0.7529845075    0.0654130846    1.5643753272
N       -1.3434822578   -1.0855520707    1.2445704942
C        1.6360656159   -0.1095357048   -0.8924402382
C        0.5169015028   -0.1654356735   -1.5274495861
H        0.7871331097    1.9787001059   -0.8928751319
H        0.2084004581    1.9027590715    1.3791283822
H       -0.8949978979    0.3249207032    2.6126287791
H        2.6274442031   -0.4582884959   -0.6531295370
H       -0.1438338219   -0.6327535216   -2.2395044702
13   
Iteration 7 Energy -340.98997764
C       -1.4879802541   -1.6025406558    0.0502485587
N       -1.7382210570   -2.1801786965   -0.9464284888
C        0.5997350242    0.9713837829   -0.5164393317
C       -0.0083305559    0.9930008235    0.8206802352
C       -0.7532761382    0.0655955556    1.5622159718
N       -1.3444781366   -1.0854211135    1.2444378679
C        1.6354154394   -0.1094567301   -0.8921269196
C        0.5163834801   -0.1639141353   -1.5272241069
H        0.7893036349    1.9798380623   -0.8924724161
H        0.2097693613    1.9027519776    1.3801915484
H       -0.8947619161    0.3250313726    2.6107180757
H        2.6264156729   -0.4593384063   -0.6524755940
H       -0.1450313815   -0.6301508570   -2.2394494946
13   
Iteration 8 Energy -340.98997794
C       -1.4883687446   -1.6022024510    0.0502936605
N       -1.7389564243   -2.1795367586   -0.9464640735
C        0.5993436523    0.9714962195   -0.5165112573
C       -0.0082778493    0.9931899511    0.8207111478
C       -0.7527834110    0.0654756739    1.5622540023
N       -1.3442408534   -1.0854149171    1.2445976694
C        1.6354028701   -0.1094121805   -0.8916364061
C        0.5169161735   -0.1635794394   -1.5275645939
H        0.7893595099    1.9799051513   -0.8924359382
H        0.2100484796    1.9028117221    1.3803887294
H       -0.8936660350    0.3247607855    2.6109256704
H        2.6263485028   -0.4588739743   -0.6511170077
H       -0.1439176361   -0.6293425373   -2.2406581832
