13   
Iteration 13 Energy -340.92655283
C       -2.2969344185    1.2541582396   -0.8112007466
N       -1.5193799448    1.1482596358    0.0691460539
C        0.6715232376    0.1499316867    0.5894432613
C       -0.5538143237    0.9515640921    1.0932866918
C       -1.2009500705    0.2109331786    2.2756522832
N       -1.0462409095    0.5578570901    3.4649025928
C        0.5608716957   -0.9512544036   -0.4228004434
C        1.0902512853    0.1526478288   -0.8501966193
H        1.4210145504    0.0929346988    1.3856839705
H       -0.2175479772    1.9308149048    1.4505583550
H       -1.7848070129   -0.6843569044    2.0122677287
H        0.2499435794   -1.9688922961   -0.6057322964
H        1.5386608983    0.7316158509   -1.6432735594
13   
Iteration 12 Energy -340.92655247
C       -2.2976944357    1.2540779868   -0.8097886920
N       -1.5199375687    1.1480631775    0.0703715875
C        0.6711751795    0.1492537529    0.5892689075
C       -0.5538026049    0.9511648037    1.0939480021
C       -1.2002106680    0.2105143927    2.2765998707
N       -1.0462142417    0.5582235916    3.4657049503
C        0.5608918387   -0.9512805053   -0.4235004519
C        1.0905047592    0.1526548341   -0.8504126171
H        1.4207399297    0.0919910222    1.3854113001
H       -0.2170516219    1.9302872335    1.4510439730
H       -1.7827784407   -0.6856673476    2.0133895285
H        0.2501871968   -1.9688409172   -0.6074037291
H        1.5394069422    0.7321727203   -1.6427661064
13   
Iteration 11 Energy -340.92655184
C       -2.2943552748    1.2582762803   -0.8105833236
N       -1.5187232541    1.1500231469    0.0711797531
C        0.6715866172    0.1499356142    0.5895221113
C       -0.5532978995    0.9514268298    1.0948688842
C       -1.2001025894    0.2088272453    2.2761129106
N       -1.0479787346    0.5554457326    3.4657311997
C        0.5608857555   -0.9522984566   -0.4208121302
C        1.0874009636    0.1517372419   -0.8514262738
H        1.4233935957    0.0961606434    1.3838274826
H       -0.2160900018    1.9298942262    1.4533253559
H       -1.7811906395   -0.6878765046    2.0112951113
H        0.2516808090   -1.9707313682   -0.6026858750
H        1.5330250628    0.7310038876   -1.6457554538
13   
Iteration 10 Energy -340.92654562
C       -2.2900502660    1.2586056319   -0.8114614537
N       -1.5183898101    1.1476048368    0.0733888952
C        0.6703325296    0.1458957915    0.5895251662
C       -0.5529547325    0.9496152918    1.0954832029
C       -1.1992984456    0.2102723889    2.2800431920
N       -1.0495486485    0.5607904486    3.4687390085
C        0.5602892914   -0.9529662271   -0.4239815701
C        1.0868365978    0.1521449358   -0.8516554724
H        1.4231677182    0.0932529690    1.3827525316
H       -0.2137854242    1.9281873394    1.4523616326
H       -1.7796184181   -0.6882525446    2.0194805804
H        0.2511672055   -1.9706483779   -0.6103305367
H        1.5317978120    0.7348169995   -1.6438238114
13   
Iteration 9 Energy -340.92652586
C       -2.2852901657    1.2490583456   -0.8145312626
N       -1.5195113479    1.1369993467    0.0752471209
C        0.6695929370    0.1362324735    0.5914428639
C       -0.5519731126    0.9449390322    1.0951186391
C       -1.1966084036    0.2159091279    2.2881532048
N       -1.0488328016    0.5803195462    3.4729199080
C        0.5558635207   -0.9503538705   -0.4349023184
C        1.0914381404    0.1562099080   -0.8477256401
H        1.4196419116    0.0729682285    1.3865536308
H       -0.2115455823    1.9260703520    1.4444396774
H       -1.7753192320   -0.6871176992    2.0394053917
H        0.2390936609   -1.9630496990   -0.6347765258
H        1.5408849711    0.7462914405   -1.6319276477
13   
Iteration 8 Energy -340.92649371
C       -2.2632661320    1.2797097190   -0.8291847698
N       -1.5228437243    1.1464855583    0.0791261501
C        0.6704048259    0.1502423465    0.5884317509
C       -0.5537620132    0.9498198934    1.0983651010
C       -1.1947233134    0.2083839524    2.2852010347
N       -1.0595346688    0.5661670206    3.4736774645
C        0.5571201415   -0.9550172381   -0.4190467698
C        1.0819145932    0.1483292484   -0.8533146523
H        1.4260237140    0.1019056699    1.3794489908
H       -0.2175523770    1.9301000012    1.4536973288
H       -1.7600016036   -0.7003771771    2.0270872167
H        0.2444537058   -1.9728557521   -0.5977099743
H        1.5163435506    0.7276871477   -1.6539247199
13   
Iteration 7 Energy -340.92644324
C       -2.2614007010    1.2684363439   -0.8367726272
N       -1.5312142545    1.1332218239    0.0796981435
C        0.6686737848    0.1459995546    0.5900154928
C       -0.5555333508    0.9463621771    1.0978694757
C       -1.1891034955    0.2134675505    2.2914319909
N       -1.0526668277    0.5894135952    3.4743874798
C        0.5508565627   -0.9487980972   -0.4290414394
C        1.0922312764    0.1529202268   -0.8473660179
H        1.4158486704    0.0783962740    1.3878419354
H       -0.2206336450    1.9288458179    1.4470764164
H       -1.7461471143   -0.7027869955    2.0432663467
H        0.2254373480   -1.9606903408   -0.6180116078
H        1.5362879434    0.7348477090   -1.6408252324
13   
Iteration 6 Energy -340.92636506
C       -2.2552742044    1.2875677922   -0.8407990879
N       -1.5355460127    1.1409966193    0.0823086741
C        0.6657681509    0.1494047627    0.5892211821
C       -0.5572668639    0.9491014453    1.1003850537
C       -1.1890183290    0.2084241685    2.2863925363
N       -1.0469809158    0.5893048204    3.4669833571
C        0.5574880085   -0.9538126938   -0.4224186631
C        1.0843420412    0.1513867568   -0.8494623941
H        1.4129966607    0.0840391694    1.3872721512
H       -0.2233801890    1.9293485447    1.4558054002
H       -1.7411755111   -0.7097926801    2.0348691399
H        0.2413771057   -1.9704172069   -0.6017639955
H        1.5181623277    0.7316187866   -1.6497138189
13   
Iteration 5 Energy -340.92533251
C       -2.2448975606    1.1800356451   -0.8357568292
N       -1.5232076300    1.0841940672    0.0915463253
C        0.6629778181    0.1151483816    0.6021426010
C       -0.5399551303    0.9536306631    1.1155424022
C       -1.1619084708    0.2428552973    2.3270738160
N       -1.0711224667    0.6310743780    3.5076003486
C        0.5255810052   -0.9210396474   -0.4710543993
C        1.1189108095    0.1749862526   -0.8266426063
H        1.3685788594   -0.0670433340    1.4186880650
H       -0.2173330749    1.9690873863    1.3663756497
H       -1.6858878810   -0.6963992381    2.0815372574
H        0.1506212250   -1.9071514542   -0.7004138624
H        1.5974674156    0.7714835412   -1.5884892563
13   
Iteration 4 Energy -340.92452314
C       -2.2504977912    1.1301039513   -0.8254432492
N       -1.5198547000    1.0572205093    0.0966095283
C        0.6552344181    0.0880281172    0.6056989776
C       -0.5332806121    0.9504961964    1.1182732875
C       -1.1507951441    0.2633252787    2.3467801715
N       -1.0681251332    0.6647224202    3.5227075369
C        0.5197439805   -0.9104258839   -0.5027459881
C        1.1326354714    0.1881872896   -0.8140753043
H        1.3391931014   -0.1423591453    1.4277214630
H       -0.2102622275    1.9749333584    1.3305915682
H       -1.6741875668   -0.6809981540    2.1166382203
H        0.1306429637   -1.8820590276   -0.7673149302
H        1.6310373542    0.8020879803   -1.5489205575
13   
Iteration 3 Energy -340.92395490
C       -2.4377380684    0.8554290571   -0.7212850818
N       -1.6132471374    0.8843121343    0.1209016756
C        0.6033812093   -0.0358613532    0.5944925524
C       -0.5582274566    0.8817183131    1.0780906637
C       -1.0960513234    0.3642849824    2.4216951343
N       -0.9271159465    0.9290869518    3.5200906672
C        0.5172821339   -0.8088854496   -0.6867739746
C        1.2920955732    0.2296461764   -0.7120648059
H        1.1476212370   -0.4665098062    1.4399807333
H       -0.2178075723    1.9179444184    1.1749912447
H       -1.6387597964   -0.5939108063    2.3626431137
H        0.0604108845   -1.6574454678   -1.1728140420
H        1.9616025148    0.8854292359   -1.2479970831
13   
Iteration 2 Energy -340.92334594
C       -2.5895303840    0.6751721314   -0.6121127325
N       -1.6963299612    0.7671018324    0.1522651314
C        0.5564600805   -0.1210063964    0.5714444720
C       -0.5861189037    0.8270789826    1.0433685247
C       -1.0488601941    0.4324506339    2.4544915072
N       -0.8058773318    1.1070212119    3.4758118075
C        0.5403225535   -0.7242932155   -0.8017745705
C        1.3900595588    0.2377681894   -0.6224776575
H        0.9974769919   -0.6745681769    1.4056360208
H       -0.2350171944    1.8641003541    1.0661769950
H       -1.5982112278   -0.5200733875    2.5234398996
H        0.0725839272   -1.4634072660   -1.4339157799
H        2.1582614104    0.8946326743   -1.0021303690
13   
Iteration 1 Energy -340.92318920
C       -2.6381489543    0.6267585314   -0.5745415103
N       -1.7246048472    0.7348828339    0.1633894791
C        0.5426281070   -0.1435173248    0.5617760082
C       -0.5967476200    0.8104925464    1.0317835634
C       -1.0342624466    0.4520482591    2.4600390137
N       -0.7696007399    1.1550598726    3.4572522726
C        0.5507718854   -0.6986011199   -0.8325635754
C        1.4175872323    0.2351801006   -0.5950030961
H        0.9552828260   -0.7271275465    1.3900717374
H       -0.2430545172    1.8468024573    1.0382815954
H       -1.5834177711   -0.4965599102    2.5651797608
H        0.0849757144   -1.4033473764   -1.5040381037
H        2.2116715730    0.8865527167   -0.9281072025
13   
Iteration 0 Energy -340.92315420
C       -2.6491754996    0.6178804341   -0.5664939533
N       -1.7315588192    0.7286750344    0.1660149313
C        0.5399705428   -0.1470558116    0.5595026985
C       -0.5999785845    0.8067549192    1.0296790943
C       -1.0325959938    0.4538487041    2.4603882662
N       -0.7593306409    1.1673041766    3.4479210080
C        0.5532457650   -0.6927670917   -0.8388199670
C        1.4241861168    0.2339428869   -0.5892302484
H        0.9470008280   -0.7360721652    1.3867562250
H       -0.2461438506    1.8430114263    1.0350313510
H       -1.5813055841   -0.4938353489    2.5756140584
H        0.0878907591   -1.3902288266   -1.5181249989
H        2.2242006554    0.8829546918   -0.9126227960
13   
Iteration 34 Energy -340.92315384
C       -2.6492365055    0.6177782873   -0.5664584461
N       -1.7316135472    0.7286044530    0.1660232373
C        0.5399520547   -0.1470947771    0.5594940880
C       -0.6000176142    0.8067490102    1.0296393923
C       -1.0325873200    0.4538881583    2.4603730933
N       -0.7592929080    1.1674150505    3.4478885970
C        0.5532605025   -0.6927140611   -0.8388688191
C        1.4242140584    0.2339414884   -0.5892029633
H        0.9468587541   -0.7361516605    1.3866742619
H       -0.2460898647    1.8429824899    1.0350725977
H       -1.5812281234   -0.4937991010    2.5756550676
H        0.0879254821   -1.3901153222   -1.5181603007
H        2.2242607257    0.8829290137   -0.9125141369
13   
Iteration 33 Energy -340.92315354
C       -2.6492729858    0.6177079658   -0.5664358158
N       -1.7316498226    0.7285517351    0.1660266358
C        0.5399437737   -0.1471334374    0.5594955344
C       -0.6000442784    0.8067373254    1.0296120644
C       -1.0325849760    0.4539005153    2.4603596523
N       -0.7592687593    1.1674782737    3.4478709945
C        0.5532648911   -0.6926962945   -0.8389041139
C        1.4242305576    0.2339303222   -0.5891890059
H        0.9467281267   -0.7361558058    1.3865485996
H       -0.2460379816    1.8429621838    1.0351167015
H       -1.5811656333   -0.4937598975    2.5756740619
H        0.0879853639   -1.3899959558   -1.5181188357
H        2.2242774184    0.8828860991   -0.9124408043
13   
Iteration 32 Energy -340.92315326
C       -2.6492923500    0.6176647717   -0.5664226312
N       -1.7316707859    0.7285164816    0.1660278426
C        0.5399411376   -0.1471669273    0.5595013761
C       -0.6000596553    0.8067234883    1.0295960869
C       -1.0325850912    0.4538978176    2.4603507090
N       -0.7592541700    1.1675066790    3.4478625685
C        0.5532618778   -0.6927002354   -0.8389285890
C        1.4242401873    0.2339160584   -0.5891832020
H        0.9466235926   -0.7361235642    1.3864198487
H       -0.2459995804    1.8429501600    1.0351481689
H       -1.5811205236   -0.4937252178    2.5756807293
H        0.0880517956   -1.3898848494   -1.5180423666
H        2.2242692598    0.8828383669   -0.9123948722
13   
Iteration 31 Energy -340.92315300
C       -2.6493026729    0.6176389848   -0.5664150303
N       -1.7316825985    0.7284940355    0.1660282576
C        0.5399405805   -0.1471919971    0.5595071238
C       -0.6000681726    0.8067117041    1.0295870192
C       -1.0325856694    0.4538912546    2.4603452784
N       -0.7592452875    1.1675183109    3.4478584106
C        0.5532568088   -0.6927103109   -0.8389450892
C        1.4242459957    0.2339038793   -0.5891811005
H        0.9465491294   -0.7360876952    1.3863172856
H       -0.2459742372    1.8429432834    1.0351676612
H       -1.5810902730   -0.4936993296    2.5756825480
H        0.0881073119   -1.3897974163   -1.5179700808
H        2.2242547793    0.8827983260   -0.9123666147
13   
Iteration 30 Energy -340.92315278
C       -2.6493086529    0.6176228034   -0.5664103649
N       -1.7316897028    0.7284793585    0.1660284129
C        0.5399406462   -0.1472099140    0.5595116861
C       -0.6000732127    0.8067027839    1.0295815540
C       -1.0325862247    0.4538850401    2.4603418620
N       -0.7592396144    1.1675233278    3.4478561572
C        0.5532522032   -0.6927199437   -0.8389562788
C        1.4242496969    0.2338946765   -0.5891803414
H        0.9464972567   -0.7360581489    1.3862419686
H       -0.2459573921    1.8429391302    1.0351800243
H       -1.5810698851   -0.4936808955    2.5756828122
H        0.0881489627   -1.3897334192   -1.5179133361
H        2.2242416134    0.8827682303   -0.9123484871
13   
Iteration 29 Energy -340.92315254
C       -2.6493124445    0.6176130111   -0.5664085538
N       -1.7316935154    0.7284694409    0.1660275705
C        0.5399411347   -0.1472259088    0.5595145757
C       -0.6000761144    0.8066944226    1.0295770153
C       -1.0325866538    0.4538777653    2.4603387590
N       -0.7592346991    1.1675220870    3.4478532261
C        0.5532436995   -0.6927349900   -0.8389682737
C        1.4242523859    0.2338863118   -0.5891838699
H        0.9464562538   -0.7360298773    1.3861745530
H       -0.2459448546    1.8429358956    1.0351882624
H       -1.5810545136   -0.4936672811    2.5756803178
H        0.0881970890   -1.3896610345   -1.5178408228
H        2.2242179270    0.8827331868   -0.9123370908
13   
Iteration 28 Energy -340.92314557
C       -2.6506599325    0.6157155065   -0.5653954047
N       -1.7326741883    0.7271152890    0.1665016781
C        0.5392617233   -0.1479489882    0.5592073319
C       -0.6004081844    0.8063442281    1.0291844091
C       -1.0318597837    0.4548621529    2.4606003832
N       -0.7582892245    1.1694620446    3.4473496537
C        0.5535421844   -0.6916059514   -0.8399626507
C        1.4251555977    0.2338286371   -0.5880319118
H        0.9443823385   -0.7383992638    1.3855602972
H       -0.2464903275    1.8426453762    1.0333115665
H       -1.5800091302   -0.4927699069    2.5771590412
H        0.0883346203   -1.3872425110   -1.5203992142
H        2.2261200012    0.8824064163   -0.9094695105
13   
Iteration 27 Energy -340.92313978
C       -2.6517867406    0.6141826630   -0.5645517547
N       -1.7334797940    0.7259992607    0.1669188976
C        0.5386820859   -0.1485666155    0.5589448769
C       -0.6006582786    0.8060553209    1.0288874927
C       -1.0312166655    0.4557039346    2.4608612777
N       -0.7575025977    1.1710114648    3.4469504254
C        0.5537656276   -0.6906987905   -0.8408054463
C        1.4259400409    0.2337767272   -0.5870514509
H        0.9426925215   -0.7404376817    1.3850639960
H       -0.2471046563    1.8424582981    1.0315323947
H       -1.5791132690   -0.4920323419    2.5784063926
H        0.0884856239   -1.3851220834   -1.5224897327
H        2.2277017963    0.8820828731   -0.9070516999
13   
Iteration 26 Energy -340.92313457
C       -2.6527979714    0.6127684696   -0.5637857183
N       -1.7342085373    0.7249902535    0.1672822460
C        0.5381686329   -0.1491131306    0.5587088400
C       -0.6008985919    0.8057881660    1.0286028015
C       -1.0306620464    0.4564483821    2.4610686176
N       -0.7567897485    1.1724556185    3.4465662591
C        0.5539847168   -0.6898585542   -0.8415553927
C        1.4266246368    0.2337320267   -0.5861800369
H        0.9411552046   -0.7422384506    1.3846079050
H       -0.2475601560    1.8422471154    1.0300679400
H       -1.5783349118   -0.4913575271    2.5795256770
H        0.0886019280   -1.3832730482   -1.5244043554
H        2.2291225385    0.8818237083   -0.9048891140
13   
Iteration 25 Energy -340.92312948
C       -2.6537902710    0.6113692944   -0.5630469509
N       -1.7349351683    0.7239804495    0.1676278539
C        0.5376674575   -0.1496376181    0.5584765183
C       -0.6011537408    0.8055420909    1.0282936045
C       -1.0301238199    0.4571807059    2.4612476807
N       -0.7561053553    1.1738888436    3.4462024704
C        0.5542128817   -0.6890302135   -0.8422865414
C        1.4272773453    0.2336832698   -0.5853449151
H        0.9396306817   -0.7439633500    1.3841666549
H       -0.2479174410    1.8420199040    1.0287612484
H       -1.5775601764   -0.4906954247    2.5805864000
H        0.0887023593   -1.3815105331   -1.5262803239
H        2.2305009416    0.8815856105   -0.9027880309
13   
Iteration 24 Energy -340.92312535
C       -2.6545724260    0.6102851919   -0.5624204238
N       -1.7354900853    0.7231924457    0.1679390120
C        0.5372614278   -0.1500684853    0.5582875302
C       -0.6013068576    0.8053105677    1.0281103878
C       -1.0296423909    0.4577556214    2.4614509871
N       -0.7555357326    1.1749718778    3.4459378927
C        0.5543857841   -0.6883924630   -0.8428697631
C        1.4278352853    0.2336299282   -0.5846166099
H        0.9384200333   -0.7454026355    1.3837579724
H       -0.2484188448    1.8418930616    1.0273790520
H       -1.5769699707   -0.4901315034    2.5815039763
H        0.0888180838   -1.3799858645   -1.5278042657
H        2.2316213879    0.8813552868   -0.9010400790
13   
Iteration 23 Energy -340.92312212
C       -2.6551952622    0.6093940376   -0.5619351548
N       -1.7359315803    0.7225716368    0.1681597939
C        0.5369485590   -0.1504118365    0.5581416191
C       -0.6014531470    0.8051360221    1.0279336553
C       -1.0293099971    0.4582130071    2.4615721758
N       -0.7550879406    1.1758826197    3.4456797595
C        0.5545254878   -0.6878672814   -0.8433328279
C        1.4282510811    0.2336050772   -0.5840786323
H        0.9374751017   -0.7465182555    1.3834694539
H       -0.2486763588    1.8417439202    1.0265032537
H       -1.5765166895   -0.4897017112    2.5822005828
H        0.0888900630   -1.3788418666   -1.5289949624
H        2.2324863774    0.8812076598   -0.8997030475
13   
Iteration 22 Energy -340.92311989
C       -2.6556320063    0.6087393302   -0.5615970218
N       -1.7362336093    0.7221467949    0.1682925491
C        0.5367384320   -0.1506582451    0.5580434844
C       -0.6015689263    0.8050133961    1.0277907209
C       -1.0291208665    0.4585327847    2.4616273361
N       -0.7547707591    1.1765668590    3.4454476143
C        0.5546245118   -0.6874819060   -0.8436576264
C        1.4285211930    0.2336056056   -0.5837298449
H        0.9368391111   -0.7472910781    1.3833020684
H       -0.2487507397    1.8415963584    1.0260527895
H       -1.5762323095   -0.4894095835    2.5826738594
H        0.0889199967   -1.3780886134   -1.5298265478
H        2.2330716665    0.8811413264   -0.8988037122
13   
Iteration 21 Energy -340.92311858
C       -2.6558826730    0.6083375754   -0.5614158373
N       -1.7364079577    0.7219066478    0.1683438164
C        0.5366260700   -0.1507924609    0.5579902855
C       -0.6016578894    0.8049563430    1.0276781208
C       -1.0290551940    0.4587196758    2.4616215871
N       -0.7545964703    1.1770079636    3.4452773101
C        0.5546902130   -0.6872375083   -0.8438378177
C        1.4286485219    0.2336231354   -0.5835648623
H        0.9365047964   -0.7477154049    1.3832676437
H       -0.2486611250    1.8414678599    1.0260033810
H       -1.5760907784   -0.4892609704    2.5829140069
H        0.0888924677   -1.3777544500   -1.5303243963
H        2.2333957130    0.8811546230   -0.8983375689
13   
Iteration 20 Energy -340.92311757
C       -2.6561072854    0.6080537869   -0.5612698092
N       -1.7365795378    0.7216410007    0.1684304149
C        0.5364647799   -0.1509294002    0.5579396099
C       -0.6016750227    0.8048427488    1.0276048976
C       -1.0288756228    0.4588341763    2.4616854844
N       -0.7544580254    1.1772169043    3.4452601972
C        0.5546948789   -0.6871669218   -0.8440272722
C        1.4287995526    0.2335297921   -0.5833787835
H        0.9361504268   -0.7477918233    1.3830329283
H       -0.2487389585    1.8414019260    1.0256401423
H       -1.5759265880   -0.4890451667    2.5831190943
H        0.0890436792   -1.3771225476   -1.5305918482
H        2.2336134176    0.8809485539   -0.8978293869
13   
Iteration 19 Energy -340.92311675
C       -2.6562943751    0.6078054622   -0.5611887231
N       -1.7367228441    0.7214397961    0.1684616413
C        0.5363192187   -0.1509792031    0.5578872535
C       -0.6017127792    0.8047839122    1.0274910903
C       -1.0287808230    0.4589563057    2.4616862213
N       -0.7543768994    1.1774577284    3.4452031753
C        0.5547224175   -0.6870512307   -0.8441527134
C        1.4288700913    0.2334873332   -0.5832834805
H        0.9360479275   -0.7478270446    1.3831635485
H       -0.2485865611    1.8412627672    1.0256873703
H       -1.5758770444   -0.4889331665    2.5832276229
H        0.0889741183   -1.3769197367   -1.5310479886
H        2.2338232476    0.8809301061   -0.8975193489
13   
Iteration 18 Energy -340.92311611
C       -2.6564223037    0.6076142290   -0.5611546872
N       -1.7368300260    0.7212717462    0.1684611123
C        0.5362170583   -0.1510508344    0.5578673130
C       -0.6017502671    0.8047167279    1.0273782025
C       -1.0287362859    0.4589965732    2.4616545980
N       -0.7543300081    1.1776012159    3.4451609211
C        0.5547095723   -0.6870418107   -0.8442646562
C        1.4288977933    0.2334207889   -0.5832642401
H        0.9358902847   -0.7476247537    1.3830688408
H       -0.2483327952    1.8411236070    1.0259010468
H       -1.5758201892   -0.4888166825    2.5832432561
H        0.0890611748   -1.3766150433   -1.5311089178
H        2.2338516862    0.8808172660   -0.8973271202
13   
Iteration 17 Energy -340.92308302
C       -2.6630231103    0.5976640184   -0.5555541028
N       -1.7413130767    0.7149729846    0.1707795477
C        0.5332738609   -0.1551052053    0.5564087929
C       -0.6034361545    0.8027484927    1.0257059688
C       -1.0257353353    0.4638505010    2.4627980817
N       -0.7491583085    1.1879870114    3.4414797474
C        0.5562487055   -0.6810310352   -0.8492533402
C        1.4333648629    0.2335409571   -0.5774729473
H        0.9251322408   -0.7609313880    1.3789063764
H       -0.2512307209    1.8394737939    1.0166327940
H       -1.5710174132   -0.4841898771    2.5911349799
H        0.0903250611   -1.3639105677   -1.5429539433
H        2.2429750826    0.8793433435   -0.8829962863
13   
Iteration 16 Energy -340.92306027
C       -2.6681742186    0.5903521881   -0.5516322690
N       -1.7450604827    0.7098816497    0.1725621809
C        0.5306595280   -0.1579237549    0.5552127505
C       -0.6047978738    0.8013051362    1.0240966540
C       -1.0231384716    0.4674714190    2.4635656754
N       -0.7454948401    1.1954602654    3.4391232952
C        0.5573586121   -0.6767772992   -0.8530398181
C        1.4366491924    0.2332379104   -0.5732322450
H        0.9170621569   -0.7693668487    1.3760168810
H       -0.2528228253    1.8380493124    1.0103742288
H       -1.5669981630   -0.4807297827    2.5965905916
H        0.0914050115   -1.3542308931   -1.5518714413
H        2.2497580685    0.8776837269   -0.8721508149
13   
Iteration 15 Energy -340.92304500
C       -2.6717780968    0.5851357285   -0.5487089538
N       -1.7476149986    0.7063969439    0.1738542688
C        0.5289218330   -0.1599766201    0.5543740642
C       -0.6057457342    0.8002788247    1.0230758492
C       -1.0213812935    0.4700513808    2.4641220043
N       -0.7428049987    1.2008434992    3.4372863543
C        0.5581949323   -0.6736415836   -0.8556810474
C        1.4389923119    0.2331286858   -0.5701540294
H        0.9112694970   -0.7758675957    1.3738070761
H       -0.2542177858    1.8371003769    1.0056308739
H       -1.5642181232   -0.4782658605    2.6005986948
H        0.0922096976   -1.3473743391   -1.5581562368
H        2.2545784534    0.8766035887   -0.8644332492
13   
Iteration 14 Energy -340.92303470
C       -2.6743724740    0.5814362513   -0.5466639680
N       -1.7494862870    0.7038551789    0.1747803302
C        0.5276257825   -0.1614069781    0.5537605721
C       -0.6064338389    0.7995481478    1.0222889196
C       -1.0200858617    0.4718861763    2.4644957627
N       -0.7409235291    1.2046287000    3.4360319884
C        0.5587846829   -0.6714499188   -0.8575673114
C        1.4406421551    0.2329887590   -0.5679863523
H        0.9071549491   -0.7802404191    1.3722509187
H       -0.2550989651    1.8363839065    1.0024029051
H       -1.5621961037   -0.4765004874    2.6033669779
H        0.0928171325   -1.3424578899   -1.5626101479
H        2.2579780517    0.8757416029   -0.8589349261
13   
Iteration 13 Energy -340.92302767
C       -2.6761939313    0.5788336051   -0.5451898402
N       -1.7507914800    0.7020717494    0.1754518267
C        0.5267318525   -0.1624258844    0.5533291284
C       -0.6069118713    0.7990396807    1.0217612957
C       -1.0191731847    0.4731967477    2.4647671766
N       -0.7395868490    1.2072922065    3.4351501498
C        0.5592137835   -0.6698782700   -0.8588864830
C        1.4418098034    0.2329089378   -0.5664337564
H        0.9042273030   -0.7834413965    1.3711301396
H       -0.2557914272    1.8359025729    0.9999973680
H       -1.5607634714   -0.4752461997    2.6053360478
H        0.0932512687   -1.3389953926   -1.5657610348
H        2.2603838982    0.8751546727   -0.8550363491
13   
Iteration 12 Energy -340.92302282
C       -2.6774907866    0.5769996395   -0.5441483285
N       -1.7517291612    0.7007647104    0.1759417784
C        0.5260762300   -0.1631606586    0.5530254204
C       -0.6072421002    0.7986929424    1.0213572128
C       -1.0184963827    0.4741549475    2.4649444332
N       -0.7386597539    1.2091478721    3.4345768564
C        0.5595158856   -0.6687876273   -0.8598221516
C        1.4426143748    0.2328388649   -0.5653291311
H        0.9021437283   -0.7856655684    1.3703330313
H       -0.2562342727    1.8355616369    0.9983079906
H       -1.5597171536   -0.4743331265    2.6066616608
H        0.0935819948   -1.3365379190   -1.5679802350
H        2.2620430919    0.8747373154   -0.8522528688
13   
Iteration 11 Energy -340.92301946
C       -2.6784022180    0.5757348600   -0.5433823887
N       -1.7523900863    0.6998228228    0.1763269335
C        0.5255992359   -0.1636990029    0.5528178369
C       -0.6074526561    0.7984625222    1.0210768309
C       -1.0179842898    0.4748647508    2.4650563969
N       -0.7380130997    1.2104067773    3.4342264345
C        0.5597179201   -0.6680150865   -0.8604824656
C        1.4431417206    0.2328074219   -0.5645230621
H        0.9006572099   -0.7872768892    1.3697870143
H       -0.2565464921    1.8353383367    0.9969613232
H       -1.5589439664   -0.4736663179    2.6075376331
H        0.0938392325   -1.3348453621   -1.5695674580
H        2.2631831838    0.8744781962   -0.8502193599
13   
Iteration 10 Energy -340.92301709
C       -2.6790374973    0.5748572573   -0.5428157890
N       -1.7528598675    0.6991102525    0.1766453188
C        0.5252033436   -0.1641003438    0.5526663990
C       -0.6075804318    0.7983435218    1.0208446276
C       -1.0175803808    0.4754088904    2.4651063395
N       -0.7375890023    1.2112430338    3.4340425069
C        0.5598702232   -0.6674313938   -0.8608986557
C        1.4434733767    0.2328946603   -0.5639645592
H        0.8994687327   -0.7885285741    1.3693374535
H       -0.2567085855    1.8352089238    0.9959928306
H       -1.5583392655   -0.4731800676    2.6080292672
H        0.0940950083   -1.3337294179   -1.5705297949
H        2.2639900406    0.8743162868   -0.8488402753
13   
Iteration 9 Energy -340.92301531
C       -2.6793700933    0.5742841292   -0.5423672775
N       -1.7531026592    0.6986452684    0.1769428996
C        0.5249894152   -0.1642260215    0.5526592415
C       -0.6075884443    0.7983667699    1.0207679545
C       -1.0172672518    0.4757518685    2.4652198576
N       -0.7373308805    1.2117426601    3.4340289763
C        0.5601287196   -0.6669165984   -0.8610040838
C        1.4437110969    0.2332686822   -0.5636353264
H        0.8979662403   -0.7900724040    1.3688559081
H       -0.2568400645    1.8352408487    0.9948799125
H       -1.5578522286   -0.4729261077    2.6082701424
H        0.0943908941   -1.3331374525   -1.5707606158
H        2.2645709505    0.8743913866   -0.8482419200
13   
Iteration 8 Energy -340.92301325
C       -2.6794430380    0.5740261899   -0.5420246087
N       -1.7531352700    0.6984672969    0.1772001381
C        0.5249924916   -0.1641394855    0.5527802980
C       -0.6074812425    0.7984333348    1.0209230048
C       -1.0170468262    0.4758560247    2.4654217347