13   
IRC reactant Energy -340.92315420
C       -2.6491754996    0.6178804341   -0.5664939533
N       -1.7315588192    0.7286750344    0.1660149313
C        0.5399705428   -0.1470558116    0.5595026985
C       -0.5999785845    0.8067549192    1.0296790943
C       -1.0325959938    0.4538487041    2.4603882662
N       -0.7593306409    1.1673041766    3.4479210080
C        0.5532457650   -0.6927670917   -0.8388199670
C        1.4241861168    0.2339428869   -0.5892302484
H        0.9470008280   -0.7360721652    1.3867562250
H       -0.2461438506    1.8430114263    1.0350313510
H       -1.5813055841   -0.4938353489    2.5756140584
H        0.0878907591   -1.3902288266   -1.5181249989
H        2.2242006554    0.8829546918   -0.9126227960
13   
IRC product Energy -340.92311720
C       -2.8109069250    0.3966215406   -0.4221015564
N       -1.8468104241    0.5794505062    0.2321110500
C        0.4574463904   -0.2286803257    0.5146762027
C       -0.6445623493    0.7620223092    0.9817142982
C       -0.9500303021    0.5637576144    2.4736767358
N       -0.6408225707    1.3921614135    3.3548147752
C        0.5994039390   -0.5520561673   -0.9435500450
C        1.5172159559    0.2182965772   -0.4504563529
H        0.6849528336   -0.9921117660    1.2647958564
H       -0.3106975467    1.7938588210    0.8344963818
H       -1.4483079479   -0.3831455976    2.7350427035
H        0.1540760944   -1.0814087072   -1.7718879824
H        2.4154485469    0.8056468111   -0.5677163976
