13   
Iteration 35 Energy -340.92315420
C       -2.6491754996    0.6178804341   -0.5664939533
N       -1.7315588192    0.7286750344    0.1660149313
C        0.5399705428   -0.1470558116    0.5595026985
C       -0.5999785845    0.8067549192    1.0296790943
C       -1.0325959938    0.4538487041    2.4603882662
N       -0.7593306409    1.1673041766    3.4479210080
C        0.5532457650   -0.6927670917   -0.8388199670
C        1.4241861168    0.2339428869   -0.5892302484
H        0.9470008280   -0.7360721652    1.3867562250
H       -0.2461438506    1.8430114263    1.0350313510
H       -1.5813055841   -0.4938353489    2.5756140584
H        0.0878907591   -1.3902288266   -1.5181249989
H        2.2242006554    0.8829546918   -0.9126227960
13   
Iteration 34 Energy -340.92315384
C       -2.6492365055    0.6177782873   -0.5664584461
N       -1.7316135472    0.7286044530    0.1660232373
C        0.5399520547   -0.1470947771    0.5594940880
C       -0.6000176142    0.8067490102    1.0296393923
C       -1.0325873200    0.4538881583    2.4603730933
N       -0.7592929080    1.1674150505    3.4478885970
C        0.5532605025   -0.6927140611   -0.8388688191
C        1.4242140584    0.2339414884   -0.5892029633
H        0.9468587541   -0.7361516605    1.3866742619
H       -0.2460898647    1.8429824899    1.0350725977
H       -1.5812281234   -0.4937991010    2.5756550676
H        0.0879254821   -1.3901153222   -1.5181603007
H        2.2242607257    0.8829290137   -0.9125141369
13   
Iteration 33 Energy -340.92315354
C       -2.6492729858    0.6177079658   -0.5664358158
N       -1.7316498226    0.7285517351    0.1660266358
C        0.5399437737   -0.1471334374    0.5594955344
C       -0.6000442784    0.8067373254    1.0296120644
C       -1.0325849760    0.4539005153    2.4603596523
N       -0.7592687593    1.1674782737    3.4478709945
C        0.5532648911   -0.6926962945   -0.8389041139
C        1.4242305576    0.2339303222   -0.5891890059
H        0.9467281267   -0.7361558058    1.3865485996
H       -0.2460379816    1.8429621838    1.0351167015
H       -1.5811656333   -0.4937598975    2.5756740619
H        0.0879853639   -1.3899959558   -1.5181188357
H        2.2242774184    0.8828860991   -0.9124408043
13   
Iteration 32 Energy -340.92315326
C       -2.6492923500    0.6176647717   -0.5664226312
N       -1.7316707859    0.7285164816    0.1660278426
C        0.5399411376   -0.1471669273    0.5595013761
C       -0.6000596553    0.8067234883    1.0295960869
C       -1.0325850912    0.4538978176    2.4603507090
N       -0.7592541700    1.1675066790    3.4478625685
C        0.5532618778   -0.6927002354   -0.8389285890
C        1.4242401873    0.2339160584   -0.5891832020
H        0.9466235926   -0.7361235642    1.3864198487
H       -0.2459995804    1.8429501600    1.0351481689
H       -1.5811205236   -0.4937252178    2.5756807293
H        0.0880517956   -1.3898848494   -1.5180423666
H        2.2242692598    0.8828383669   -0.9123948722
13   
Iteration 31 Energy -340.92315300
C       -2.6493026729    0.6176389848   -0.5664150303
N       -1.7316825985    0.7284940355    0.1660282576
C        0.5399405805   -0.1471919971    0.5595071238
C       -0.6000681726    0.8067117041    1.0295870192
C       -1.0325856694    0.4538912546    2.4603452784
N       -0.7592452875    1.1675183109    3.4478584106
C        0.5532568088   -0.6927103109   -0.8389450892
C        1.4242459957    0.2339038793   -0.5891811005
H        0.9465491294   -0.7360876952    1.3863172856
H       -0.2459742372    1.8429432834    1.0351676612
H       -1.5810902730   -0.4936993296    2.5756825480
H        0.0881073119   -1.3897974163   -1.5179700808
H        2.2242547793    0.8827983260   -0.9123666147
13   
Iteration 30 Energy -340.92315278
C       -2.6493086529    0.6176228034   -0.5664103649
N       -1.7316897028    0.7284793585    0.1660284129
C        0.5399406462   -0.1472099140    0.5595116861
C       -0.6000732127    0.8067027839    1.0295815540
C       -1.0325862247    0.4538850401    2.4603418620
N       -0.7592396144    1.1675233278    3.4478561572
C        0.5532522032   -0.6927199437   -0.8389562788
C        1.4242496969    0.2338946765   -0.5891803414
H        0.9464972567   -0.7360581489    1.3862419686
H       -0.2459573921    1.8429391302    1.0351800243
H       -1.5810698851   -0.4936808955    2.5756828122
H        0.0881489627   -1.3897334192   -1.5179133361
H        2.2242416134    0.8827682303   -0.9123484871
13   
Iteration 29 Energy -340.92315254
C       -2.6493124445    0.6176130111   -0.5664085538
N       -1.7316935154    0.7284694409    0.1660275705
C        0.5399411347   -0.1472259088    0.5595145757
C       -0.6000761144    0.8066944226    1.0295770153
C       -1.0325866538    0.4538777653    2.4603387590
N       -0.7592346991    1.1675220870    3.4478532261
C        0.5532436995   -0.6927349900   -0.8389682737
C        1.4242523859    0.2338863118   -0.5891838699
H        0.9464562538   -0.7360298773    1.3861745530
H       -0.2459448546    1.8429358956    1.0351882624
H       -1.5810545136   -0.4936672811    2.5756803178
H        0.0881970890   -1.3896610345   -1.5178408228
H        2.2242179270    0.8827331868   -0.9123370908
13   
Iteration 28 Energy -340.92314557
C       -2.6506599325    0.6157155065   -0.5653954047
N       -1.7326741883    0.7271152890    0.1665016781
C        0.5392617233   -0.1479489882    0.5592073319
C       -0.6004081844    0.8063442281    1.0291844091
C       -1.0318597837    0.4548621529    2.4606003832
N       -0.7582892245    1.1694620446    3.4473496537
C        0.5535421844   -0.6916059514   -0.8399626507
C        1.4251555977    0.2338286371   -0.5880319118
H        0.9443823385   -0.7383992638    1.3855602972
H       -0.2464903275    1.8426453762    1.0333115665
H       -1.5800091302   -0.4927699069    2.5771590412
H        0.0883346203   -1.3872425110   -1.5203992142
H        2.2261200012    0.8824064163   -0.9094695105
13   
Iteration 27 Energy -340.92313978
C       -2.6517867406    0.6141826630   -0.5645517547
N       -1.7334797940    0.7259992607    0.1669188976
C        0.5386820859   -0.1485666155    0.5589448769
C       -0.6006582786    0.8060553209    1.0288874927
C       -1.0312166655    0.4557039346    2.4608612777
N       -0.7575025977    1.1710114648    3.4469504254
C        0.5537656276   -0.6906987905   -0.8408054463
C        1.4259400409    0.2337767272   -0.5870514509
H        0.9426925215   -0.7404376817    1.3850639960
H       -0.2471046563    1.8424582981    1.0315323947
H       -1.5791132690   -0.4920323419    2.5784063926
H        0.0884856239   -1.3851220834   -1.5224897327
H        2.2277017963    0.8820828731   -0.9070516999
13   
Iteration 26 Energy -340.92313457
C       -2.6527979714    0.6127684696   -0.5637857183
N       -1.7342085373    0.7249902535    0.1672822460
C        0.5381686329   -0.1491131306    0.5587088400
C       -0.6008985919    0.8057881660    1.0286028015
C       -1.0306620464    0.4564483821    2.4610686176
N       -0.7567897485    1.1724556185    3.4465662591
C        0.5539847168   -0.6898585542   -0.8415553927
C        1.4266246368    0.2337320267   -0.5861800369
H        0.9411552046   -0.7422384506    1.3846079050
H       -0.2475601560    1.8422471154    1.0300679400
H       -1.5783349118   -0.4913575271    2.5795256770
H        0.0886019280   -1.3832730482   -1.5244043554
H        2.2291225385    0.8818237083   -0.9048891140
13   
Iteration 25 Energy -340.92312948
C       -2.6537902710    0.6113692944   -0.5630469509
N       -1.7349351683    0.7239804495    0.1676278539
C        0.5376674575   -0.1496376181    0.5584765183
C       -0.6011537408    0.8055420909    1.0282936045
C       -1.0301238199    0.4571807059    2.4612476807
N       -0.7561053553    1.1738888436    3.4462024704
C        0.5542128817   -0.6890302135   -0.8422865414
C        1.4272773453    0.2336832698   -0.5853449151
H        0.9396306817   -0.7439633500    1.3841666549
H       -0.2479174410    1.8420199040    1.0287612484
H       -1.5775601764   -0.4906954247    2.5805864000
H        0.0887023593   -1.3815105331   -1.5262803239
H        2.2305009416    0.8815856105   -0.9027880309
13   
Iteration 24 Energy -340.92312535
C       -2.6545724260    0.6102851919   -0.5624204238
N       -1.7354900853    0.7231924457    0.1679390120
C        0.5372614278   -0.1500684853    0.5582875302
C       -0.6013068576    0.8053105677    1.0281103878
C       -1.0296423909    0.4577556214    2.4614509871
N       -0.7555357326    1.1749718778    3.4459378927
C        0.5543857841   -0.6883924630   -0.8428697631
C        1.4278352853    0.2336299282   -0.5846166099
H        0.9384200333   -0.7454026355    1.3837579724
H       -0.2484188448    1.8418930616    1.0273790520
H       -1.5769699707   -0.4901315034    2.5815039763
H        0.0888180838   -1.3799858645   -1.5278042657
H        2.2316213879    0.8813552868   -0.9010400790
13   
Iteration 23 Energy -340.92312212
C       -2.6551952622    0.6093940376   -0.5619351548
N       -1.7359315803    0.7225716368    0.1681597939
C        0.5369485590   -0.1504118365    0.5581416191
C       -0.6014531470    0.8051360221    1.0279336553
C       -1.0293099971    0.4582130071    2.4615721758
N       -0.7550879406    1.1758826197    3.4456797595
C        0.5545254878   -0.6878672814   -0.8433328279
C        1.4282510811    0.2336050772   -0.5840786323
H        0.9374751017   -0.7465182555    1.3834694539
H       -0.2486763588    1.8417439202    1.0265032537
H       -1.5765166895   -0.4897017112    2.5822005828
H        0.0888900630   -1.3788418666   -1.5289949624
H        2.2324863774    0.8812076598   -0.8997030475
13   
Iteration 22 Energy -340.92311989
C       -2.6556320063    0.6087393302   -0.5615970218
N       -1.7362336093    0.7221467949    0.1682925491
C        0.5367384320   -0.1506582451    0.5580434844
C       -0.6015689263    0.8050133961    1.0277907209
C       -1.0291208665    0.4585327847    2.4616273361
N       -0.7547707591    1.1765668590    3.4454476143
C        0.5546245118   -0.6874819060   -0.8436576264
C        1.4285211930    0.2336056056   -0.5837298449
H        0.9368391111   -0.7472910781    1.3833020684
H       -0.2487507397    1.8415963584    1.0260527895
H       -1.5762323095   -0.4894095835    2.5826738594
H        0.0889199967   -1.3780886134   -1.5298265478
H        2.2330716665    0.8811413264   -0.8988037122
13   
Iteration 21 Energy -340.92311858
C       -2.6558826730    0.6083375754   -0.5614158373
N       -1.7364079577    0.7219066478    0.1683438164
C        0.5366260700   -0.1507924609    0.5579902855
C       -0.6016578894    0.8049563430    1.0276781208
C       -1.0290551940    0.4587196758    2.4616215871
N       -0.7545964703    1.1770079636    3.4452773101
C        0.5546902130   -0.6872375083   -0.8438378177
C        1.4286485219    0.2336231354   -0.5835648623
H        0.9365047964   -0.7477154049    1.3832676437
H       -0.2486611250    1.8414678599    1.0260033810
H       -1.5760907784   -0.4892609704    2.5829140069
H        0.0888924677   -1.3777544500   -1.5303243963
H        2.2333957130    0.8811546230   -0.8983375689
13   
Iteration 20 Energy -340.92311757
C       -2.6561072854    0.6080537869   -0.5612698092
N       -1.7365795378    0.7216410007    0.1684304149
C        0.5364647799   -0.1509294002    0.5579396099
C       -0.6016750227    0.8048427488    1.0276048976
C       -1.0288756228    0.4588341763    2.4616854844
N       -0.7544580254    1.1772169043    3.4452601972
C        0.5546948789   -0.6871669218   -0.8440272722
C        1.4287995526    0.2335297921   -0.5833787835
H        0.9361504268   -0.7477918233    1.3830329283
H       -0.2487389585    1.8414019260    1.0256401423
H       -1.5759265880   -0.4890451667    2.5831190943
H        0.0890436792   -1.3771225476   -1.5305918482
H        2.2336134176    0.8809485539   -0.8978293869
13   
Iteration 19 Energy -340.92311675
C       -2.6562943751    0.6078054622   -0.5611887231
N       -1.7367228441    0.7214397961    0.1684616413
C        0.5363192187   -0.1509792031    0.5578872535
C       -0.6017127792    0.8047839122    1.0274910903
C       -1.0287808230    0.4589563057    2.4616862213
N       -0.7543768994    1.1774577284    3.4452031753
C        0.5547224175   -0.6870512307   -0.8441527134
C        1.4288700913    0.2334873332   -0.5832834805
H        0.9360479275   -0.7478270446    1.3831635485
H       -0.2485865611    1.8412627672    1.0256873703
H       -1.5758770444   -0.4889331665    2.5832276229
H        0.0889741183   -1.3769197367   -1.5310479886
H        2.2338232476    0.8809301061   -0.8975193489
13   
Iteration 18 Energy -340.92311611
C       -2.6564223037    0.6076142290   -0.5611546872
N       -1.7368300260    0.7212717462    0.1684611123
C        0.5362170583   -0.1510508344    0.5578673130
C       -0.6017502671    0.8047167279    1.0273782025
C       -1.0287362859    0.4589965732    2.4616545980
N       -0.7543300081    1.1776012159    3.4451609211
C        0.5547095723   -0.6870418107   -0.8442646562
C        1.4288977933    0.2334207889   -0.5832642401
H        0.9358902847   -0.7476247537    1.3830688408
H       -0.2483327952    1.8411236070    1.0259010468
H       -1.5758201892   -0.4888166825    2.5832432561
H        0.0890611748   -1.3766150433   -1.5311089178
H        2.2338516862    0.8808172660   -0.8973271202
13   
Iteration 17 Energy -340.92308302
C       -2.6630231103    0.5976640184   -0.5555541028
N       -1.7413130767    0.7149729846    0.1707795477
C        0.5332738609   -0.1551052053    0.5564087929
C       -0.6034361545    0.8027484927    1.0257059688
C       -1.0257353353    0.4638505010    2.4627980817
N       -0.7491583085    1.1879870114    3.4414797474
C        0.5562487055   -0.6810310352   -0.8492533402
C        1.4333648629    0.2335409571   -0.5774729473
H        0.9251322408   -0.7609313880    1.3789063764
H       -0.2512307209    1.8394737939    1.0166327940
H       -1.5710174132   -0.4841898771    2.5911349799
H        0.0903250611   -1.3639105677   -1.5429539433
H        2.2429750826    0.8793433435   -0.8829962863
13   
Iteration 16 Energy -340.92306027
C       -2.6681742186    0.5903521881   -0.5516322690
N       -1.7450604827    0.7098816497    0.1725621809
C        0.5306595280   -0.1579237549    0.5552127505
C       -0.6047978738    0.8013051362    1.0240966540
C       -1.0231384716    0.4674714190    2.4635656754
N       -0.7454948401    1.1954602654    3.4391232952
C        0.5573586121   -0.6767772992   -0.8530398181
C        1.4366491924    0.2332379104   -0.5732322450
H        0.9170621569   -0.7693668487    1.3760168810
H       -0.2528228253    1.8380493124    1.0103742288
H       -1.5669981630   -0.4807297827    2.5965905916
H        0.0914050115   -1.3542308931   -1.5518714413
H        2.2497580685    0.8776837269   -0.8721508149
13   
Iteration 15 Energy -340.92304500
C       -2.6717780968    0.5851357285   -0.5487089538
N       -1.7476149986    0.7063969439    0.1738542688
C        0.5289218330   -0.1599766201    0.5543740642
C       -0.6057457342    0.8002788247    1.0230758492
C       -1.0213812935    0.4700513808    2.4641220043
N       -0.7428049987    1.2008434992    3.4372863543
C        0.5581949323   -0.6736415836   -0.8556810474
C        1.4389923119    0.2331286858   -0.5701540294
H        0.9112694970   -0.7758675957    1.3738070761
H       -0.2542177858    1.8371003769    1.0056308739
H       -1.5642181232   -0.4782658605    2.6005986948
H        0.0922096976   -1.3473743391   -1.5581562368
H        2.2545784534    0.8766035887   -0.8644332492
13   
Iteration 14 Energy -340.92303470
C       -2.6743724740    0.5814362513   -0.5466639680
N       -1.7494862870    0.7038551789    0.1747803302
C        0.5276257825   -0.1614069781    0.5537605721
C       -0.6064338389    0.7995481478    1.0222889196
C       -1.0200858617    0.4718861763    2.4644957627
N       -0.7409235291    1.2046287000    3.4360319884
C        0.5587846829   -0.6714499188   -0.8575673114
C        1.4406421551    0.2329887590   -0.5679863523
H        0.9071549491   -0.7802404191    1.3722509187
H       -0.2550989651    1.8363839065    1.0024029051
H       -1.5621961037   -0.4765004874    2.6033669779
H        0.0928171325   -1.3424578899   -1.5626101479
H        2.2579780517    0.8757416029   -0.8589349261
13   
Iteration 13 Energy -340.92302767
C       -2.6761939313    0.5788336051   -0.5451898402
N       -1.7507914800    0.7020717494    0.1754518267
C        0.5267318525   -0.1624258844    0.5533291284
C       -0.6069118713    0.7990396807    1.0217612957
C       -1.0191731847    0.4731967477    2.4647671766
N       -0.7395868490    1.2072922065    3.4351501498
C        0.5592137835   -0.6698782700   -0.8588864830
C        1.4418098034    0.2329089378   -0.5664337564
H        0.9042273030   -0.7834413965    1.3711301396
H       -0.2557914272    1.8359025729    0.9999973680
H       -1.5607634714   -0.4752461997    2.6053360478
H        0.0932512687   -1.3389953926   -1.5657610348
H        2.2603838982    0.8751546727   -0.8550363491
13   
Iteration 12 Energy -340.92302282
C       -2.6774907866    0.5769996395   -0.5441483285
N       -1.7517291612    0.7007647104    0.1759417784
C        0.5260762300   -0.1631606586    0.5530254204
C       -0.6072421002    0.7986929424    1.0213572128
C       -1.0184963827    0.4741549475    2.4649444332
N       -0.7386597539    1.2091478721    3.4345768564
C        0.5595158856   -0.6687876273   -0.8598221516
C        1.4426143748    0.2328388649   -0.5653291311
H        0.9021437283   -0.7856655684    1.3703330313
H       -0.2562342727    1.8355616369    0.9983079906
H       -1.5597171536   -0.4743331265    2.6066616608
H        0.0935819948   -1.3365379190   -1.5679802350
H        2.2620430919    0.8747373154   -0.8522528688
13   
Iteration 11 Energy -340.92301946
C       -2.6784022180    0.5757348600   -0.5433823887
N       -1.7523900863    0.6998228228    0.1763269335
C        0.5255992359   -0.1636990029    0.5528178369
C       -0.6074526561    0.7984625222    1.0210768309
C       -1.0179842898    0.4748647508    2.4650563969
N       -0.7380130997    1.2104067773    3.4342264345
C        0.5597179201   -0.6680150865   -0.8604824656
C        1.4431417206    0.2328074219   -0.5645230621
H        0.9006572099   -0.7872768892    1.3697870143
H       -0.2565464921    1.8353383367    0.9969613232
H       -1.5589439664   -0.4736663179    2.6075376331
H        0.0938392325   -1.3348453621   -1.5695674580
H        2.2631831838    0.8744781962   -0.8502193599
13   
Iteration 10 Energy -340.92301709
C       -2.6790374973    0.5748572573   -0.5428157890
N       -1.7528598675    0.6991102525    0.1766453188
C        0.5252033436   -0.1641003438    0.5526663990
C       -0.6075804318    0.7983435218    1.0208446276
C       -1.0175803808    0.4754088904    2.4651063395
N       -0.7375890023    1.2112430338    3.4340425069
C        0.5598702232   -0.6674313938   -0.8608986557
C        1.4434733767    0.2328946603   -0.5639645592
H        0.8994687327   -0.7885285741    1.3693374535
H       -0.2567085855    1.8352089238    0.9959928306
H       -1.5583392655   -0.4731800676    2.6080292672
H        0.0940950083   -1.3337294179   -1.5705297949
H        2.2639900406    0.8743162868   -0.8488402753
13   
Iteration 9 Energy -340.92301531
C       -2.6793700933    0.5742841292   -0.5423672775
N       -1.7531026592    0.6986452684    0.1769428996
C        0.5249894152   -0.1642260215    0.5526592415
C       -0.6075884443    0.7983667699    1.0207679545
C       -1.0172672518    0.4757518685    2.4652198576
N       -0.7373308805    1.2117426601    3.4340289763
C        0.5601287196   -0.6669165984   -0.8610040838
C        1.4437110969    0.2332686822   -0.5636353264
H        0.8979662403   -0.7900724040    1.3688559081
H       -0.2568400645    1.8352408487    0.9948799125
H       -1.5578522286   -0.4729261077    2.6082701424
H        0.0943908941   -1.3331374525   -1.5707606158
H        2.2645709505    0.8743913866   -0.8482419200
13   
Iteration 8 Energy -340.92301325
C       -2.6794430380    0.5740261899   -0.5420246087
N       -1.7531352700    0.6984672969    0.1772001381
C        0.5249924916   -0.1641394855    0.5527802980
C       -0.6074812425    0.7984333348    1.0209230048
C       -1.0170468262    0.4758560247    2.4654217347
N       -0.7371616539    1.2119085611    3.4341329607
C        0.5604194070   -0.6665363190   -0.8609415204
C        1.4438904485    0.2337153332   -0.5634645191
H        0.8963866174   -0.7915592693    1.3684384297
H       -0.2570827892    1.8353644427    0.9933593297
H       -1.5575228998   -0.4728915487    2.6084536225
H        0.0946805523   -1.3328335069   -1.5705461238
H        2.2649098972    0.8746019755   -0.8481170771
13   
Iteration 7 Energy -340.92301074
C       -2.6794076215    0.5739842053   -0.5418019262
N       -1.7530796340    0.6984650232    0.1773831804
C        0.5250707194   -0.1639967010    0.5528951383
C       -0.6073436565    0.7984737427    1.0211699406
C       -1.0169053086    0.4758306550    2.4656160386
N       -0.7370556821    1.2118656753    3.4342595706
C        0.5606421037   -0.6662810256   -0.8608583619
C        1.4439975823    0.2340366093   -0.5633794043
H        0.8952720022   -0.7925777571    1.3683634463
H       -0.2573547244    1.8354888711    0.9918909206
H       -1.5573468516   -0.4729574755    2.6086180395
H        0.0948072785   -1.3327560496   -1.5704211865
H        2.2651094869    0.8748372562   -0.8481197270
13   
Iteration 6 Energy -340.92299705
C       -2.6832700289    0.5690962564   -0.5389280584
N       -1.7560831389    0.6946664551    0.1789640415
C        0.5229669084   -0.1658686126    0.5519804818
C       -0.6084265819    0.7976070362    1.0199717934
C       -1.0146789211    0.4785136966    2.4661512294
N       -0.7342400501    1.2169084176    3.4328116241
C        0.5616340590   -0.6631001084   -0.8634304467
C        1.4463458245    0.2339051894   -0.5601559742
H        0.8886440023   -0.7988671781    1.3660860597
H       -0.2589181899    1.8346449182    0.9864667091
H       -1.5537667937   -0.4705804363    2.6123331344
H        0.0960620587   -1.3259198891   -1.5765893117
H        2.2701365459    0.8734072844   -0.8400456135
13   
Iteration 5 Energy -340.92297391
C       -2.6928711891    0.5552458320   -0.5317321181
N       -1.7625978740    0.6863632010    0.1812247514
C        0.5185557158   -0.1716502963    0.5491854440
C       -0.6114652171    0.7941269534    1.0167553424
C       -1.0112412478    0.4846973287    2.4668222700
N       -0.7271687730    1.2315652671    3.4261267228
C        0.5630643686   -0.6558998527   -0.8708065846
C        1.4521548121    0.2315933567   -0.5524781518
H        0.8789743277   -0.8105955109    1.3608096966
H       -0.2616403712    1.8309693851    0.9804051989
H       -1.5484250926   -0.4637991713    2.6231726590
H        0.0975262923   -1.3073865454   -1.5941897810
H        2.2815399427    0.8691830819   -0.8196797806
13   
Iteration 4 Energy -340.92295240
C       -2.7020044738    0.5426952795   -0.5237940895
N       -1.7692515508    0.6773216228    0.1852292793
C        0.5138873769   -0.1763333360    0.5470809923
C       -0.6137290855    0.7919222115    1.0141785626
C       -1.0061346431    0.4913118165    2.4680705031
N       -0.7203994078    1.2442041691    3.4220356869
C        0.5657707608   -0.6476895763   -0.8768071251
C        1.4577555905    0.2316824723   -0.5445272748
H        0.8621477746   -0.8276080442    1.3542670436
H       -0.2654527008    1.8287734797    0.9664916453
H       -1.5403533442   -0.4576041033    2.6322256771
H        0.1008798370   -1.2902515518   -1.6086019761
H        2.2932895606    0.8659885895   -0.8002332557
13   
Iteration 3 Energy -340.92293753
C       -2.7107467370    0.5304059678   -0.5165253324
N       -1.7753214398    0.6695179069    0.1881240456
C        0.5096126136   -0.1810669848    0.5446720620
C       -0.6162199943    0.7891126721    1.0115398429
C       -1.0022505521    0.4970362261    2.4688754589
N       -0.7137861952    1.2568400026    3.4165869255
C        0.5678315128   -0.6404896152   -0.8829233328
C        1.4629280489    0.2305387502   -0.5373279345
H        0.8498741603   -0.8404797768    1.3486221037
H       -0.2683454436    1.8257748978    0.9575276024
H       -1.5344485685   -0.4514888963    2.6415297111
H        0.1035268864   -1.2735427383   -1.6232928383
H        2.3037514028    0.8622546174   -0.7817926452
13   
Iteration 2 Energy -340.92292811
C       -2.7182824774    0.5196448654   -0.5100804430
N       -1.7811370918    0.6617321964    0.1916676414
C        0.5054875912   -0.1849939805    0.5427340100
C       -0.6183353053    0.7872512604    1.0092718848
C       -0.9977801739    0.5027143694    2.4698002297
N       -0.7078911692    1.2675605132    3.4129353901
C        0.5700492275   -0.6334086647   -0.8879522064
C        1.4675476671    0.2302685805   -0.5304207156
H        0.8357568488   -0.8543074068    1.3426967910
H       -0.2718622529    1.8238261943    0.9461470661
H       -1.5271861073   -0.4461790611    2.6491894793
H        0.1065046403   -1.2585874589   -1.6354829055
H        2.3135342973    0.8588916218   -0.7648905530
13   
Iteration 1 Energy -340.92292344
C       -2.7262394933    0.5100208022   -0.5030087702
N       -1.7861209606    0.6555332011    0.1940570871
C        0.5020978170   -0.1886135983    0.5407216581
C       -0.6203642291    0.7850275026    1.0069888599
C       -0.9946989088    0.5072598089    2.4701436020
N       -0.7014281290    1.2767710478    3.4084535563
C        0.5722732469   -0.6276555589   -0.8926216127
C        1.4717338222    0.2295193370   -0.5245548823
H        0.8255607711   -0.8645313243    1.3378951787
H       -0.2743496002    1.8213897732    0.9383491700
H       -1.5236035685   -0.4406567999    2.6559999616
H        0.1097490980   -1.2455708706   -1.6467822285
H        2.3217958286    0.8559197088   -0.7500259111
13   
Iteration 0 Energy -340.92292192
C       -2.7326463671    0.5016686885   -0.4973394827
N       -1.7908165267    0.6496184814    0.1968949015
C        0.4987426365   -0.1918397739    0.5389089845
C       -0.6221225567    0.7833165653    1.0051266644
C       -0.9912594853    0.5116512261    2.4707505487
N       -0.6973110678    1.2859034661    3.4049137866
C        0.5740995613   -0.6220433303   -0.8968053519
C        1.4753773651    0.2289839924   -0.5190832424
H        0.8148004560   -0.8749853485    1.3329074293
H       -0.2769852874    1.8194997016    0.9300685097
H       -1.5175617995   -0.4365906667    2.6623827641
H        0.1125907684   -1.2335477551   -1.6567998498
H        2.3294979976    0.8527777825   -0.7363099930
13   
Iteration 1 Energy -340.92292305
C       -2.7383423590    0.4926901939   -0.4922305598
N       -1.7953064894    0.6434968591    0.1997477611
C        0.4953611920   -0.1951615266    0.5371868044
C       -0.6237794082    0.7816002438    1.0033565418
C       -0.9877056554    0.5161706367    2.4714066147
N       -0.6939808523    1.2957285611    3.4011960121
C        0.5756754695   -0.6161655940   -0.9009198493
C        1.4790482131    0.2281920755   -0.5134136132
H        0.8037930783   -0.8857559191    1.3277424007
H       -0.2795569045    1.8175763025    0.9218418083
H       -1.5104578321   -0.4328323817    2.6690063342
H        0.1145001557   -1.2204320202   -1.6668816383
H        2.3371570868    0.8493055983   -0.7224229478
13   
Iteration 2 Energy -340.92292749
C       -2.7457300803    0.4828638989   -0.4853498201
N       -1.8001654285    0.6373219606    0.2023699646
C        0.4919011652   -0.1986727348    0.5350876670
C       -0.6257425762    0.7794374308    1.0012146646
C       -0.9845014524    0.5207293378    2.4717479226
N       -0.6882848822    1.3052450438    3.3965883193
C        0.5777205041   -0.6100904528   -0.9055069941
C        1.4830126008    0.2273392548   -0.5075505574
H        0.7932921125   -0.8959817349    1.3224866434
H       -0.2820712605    1.8151274317    0.9141229417
H       -1.5059837898   -0.4275930237    2.6758286054
H        0.1176994718   -1.2070226345   -1.6778988438
H        2.3452593101    0.8457092515   -0.7075248443
13   
Iteration 3 Energy -340.92293603
C       -2.7533291091    0.4726436104   -0.4784451387
N       -1.8059472028    0.6298807982    0.2061212116
C        0.4877156224   -0.2023840325    0.5329533213
C       -0.6279182773    0.7776032782    0.9989084651
C       -0.9799785980    0.5262221727    2.4723157470
N       -0.6826580675    1.3156836608    3.3925107283
C        0.5802779730   -0.6031192412   -0.9100837510
C        1.4873756396    0.2266684147   -0.5005308857
H        0.7792583074   -0.9089349314    1.3158026460
H       -0.2858016888    1.8129928275    0.9030487417
H       -1.4982921213   -0.4224438310    2.6829975713
H        0.1214731229   -1.1920531948   -1.6892993897
H        2.3542300938    0.8416534976   -0.6906835982
13   
Iteration 4 Energy -340.92295027
C       -2.7621306566    0.4607135296   -0.4703486356
N       -1.8120462855    0.6223622186    0.2094596977
C        0.4832625273   -0.2066297464    0.5301609458
C       -0.6304890759    0.7748525754    0.9962862176
C       -0.9759375959    0.5317247617    2.4726784843
N       -0.6761471407    1.3277372358    3.3864704158
C        0.5826545732   -0.5955565233   -0.9157571167
C        1.4920267829    0.2252902648   -0.4933262594
H        0.7665371009   -0.9208147869    1.3091685096
H       -0.2889286844    1.8098237188    0.8942193080
H       -1.4919245601   -0.4163219238    2.6916168526
H        0.1255691664   -1.1752936102   -1.7028635737
H        2.3639595429    0.8365253153   -0.6721491772
13   
Iteration 5 Energy -340.92297099
C       -2.7713599652    0.4484283424   -0.4613055828
N       -1.8187354142    0.6136600026    0.2140333158
C        0.4783692651   -0.2110375685    0.5275689257
C       -0.6329962307    0.7726397752    0.9935766255
C       -0.9706232591    0.5382540417    2.4731581041