13   
IRC reactant Energy -340.95660102
C       -1.0231706787    1.9880808561    0.2834826450
N       -1.5220157798    2.9787685687   -0.0570094956
C        0.7341239172    0.3794877402   -0.3899737406
C       -0.3240372345    0.7580685280    0.6813278363
C       -1.2876918652   -0.3926991867    0.9824103039
N       -2.5322413206   -0.3555210404    0.8830644480
C        1.0970091632   -1.0438126901   -0.7072483589
C        0.3890726368   -0.4295816519   -1.6044363769
H        1.4945585987    1.1635466051   -0.4647262497
H        0.2073622274    0.9719500114    1.6213822159
H       -0.7954975491   -1.3190467480    1.3187886112
H        1.6293653773   -1.9245920418   -0.3794359518
H       -0.1038372443   -0.4186053326   -2.5647635183
13   
IRC product Energy -340.92386470
C       -1.4140834250    1.5582097206    0.4443602954
N       -1.5935176528    2.7288144036    0.0846324774
C        0.7897943374    0.3887641344   -0.4228289588
C       -0.1688425138    0.6362849490    0.7313223224
C       -1.3027027298   -0.3304689713    0.9803101219
N       -2.3239514985    0.4340994268    0.7517635466
C        1.2948466466   -0.9943321209   -0.7522747040
C        0.4263826598   -0.5046367953   -1.5811029330
H        1.4403537214    1.2511481847   -0.6021718785
H        0.3647593816    0.9496703386    1.6379705635
H       -1.3512882842   -1.3776268172    1.2728454125
H        1.9607456812   -1.7923865221   -0.4578676422
H       -0.1594960754   -0.5914963129   -2.4840962547
