13   
Iteration 27 Energy -340.95660102
C       -1.0231706787    1.9880808561    0.2834826450
N       -1.5220157798    2.9787685687   -0.0570094956
C        0.7341239172    0.3794877402   -0.3899737406
C       -0.3240372345    0.7580685280    0.6813278363
C       -1.2876918652   -0.3926991867    0.9824103039
N       -2.5322413206   -0.3555210404    0.8830644480
C        1.0970091632   -1.0438126901   -0.7072483589
C        0.3890726368   -0.4295816519   -1.6044363769
H        1.4945585987    1.1635466051   -0.4647262497
H        0.2073622274    0.9719500114    1.6213822159
H       -0.7954975491   -1.3190467480    1.3187886112
H        1.6293653773   -1.9245920418   -0.3794359518
H       -0.1038372443   -0.4186053326   -2.5647635183
13   
Iteration 26 Energy -340.95660103
C       -1.0232055288    1.9880503487    0.2834160686
N       -1.5221563730    2.9786462009   -0.0571764392
C        0.7341799645    0.3794712201   -0.3899650285
C       -0.3240321153    0.7580772199    0.6812930355
C       -1.2877014161   -0.3926626070    0.9824711246
N       -2.5322845647   -0.3555970893    0.8834597187
C        1.0969344969   -1.0438540867   -0.7072942989
C        0.3891691960   -0.4294801564   -1.6045162002
H        1.4947034339    1.1634554003   -0.4645859143
H        0.2073183782    0.9720365674    1.6213550919
H       -0.7954333882   -1.3190024094    1.3187740137
H        1.6291495127   -1.9247159444   -0.3794758156
H       -0.1036413476   -0.4183810461   -2.5648929878
13   
Iteration 25 Energy -340.95660104
C       -1.0235990779    1.9879266301    0.2830406508
N       -1.5228389440    2.9782117724   -0.0580243659
C        0.7343838328    0.3794229251   -0.3898225096
C       -0.3240845854    0.7582139180    0.6811735769
C       -1.2875087646   -0.3926447577    0.9827008018
N       -2.5322223119   -0.3555090715    0.8852658214
C        1.0965290193   -1.0440277275   -0.7073423850
C        0.3894990557   -0.4290520386   -1.6047215210
H        1.4953503821    1.1630177734   -0.4639457307
H        0.2072033954    0.9723260659    1.6212419426
H       -0.7949644327   -1.3191722426    1.3180853418
H        1.6281403092   -1.9252349210   -0.3794780561
H       -0.1028876294   -0.4174347080   -2.5653111986
13   
Iteration 24 Energy -340.95660034
C       -1.0246411356    1.9865484658    0.2799969552
N       -1.5239882277    2.9758138389   -0.0639386544
C        0.7350750982    0.3791229417   -0.3884219625
C       -0.3245985859    0.7581240519    0.6811364745
C       -1.2873168004   -0.3930447193    0.9838455754
N       -2.5327578193   -0.3529471131    0.8978512432
C        1.0956158749   -1.0444292964   -0.7075066156
C        0.3907609425   -0.4270622864   -1.6049698731
H        1.4972073831    1.1617735998   -0.4604728392
H        0.2055491210    0.9741994209    1.6214307223
H       -0.7934662719   -1.3219581090    1.3105736329
H        1.6256819108   -1.9268335230   -0.3803588421
H       -0.1001212414   -0.4132636537   -2.5663034482
13   
Iteration 23 Energy -340.95659985
C       -1.0245969615    1.9863565070    0.2793687312
N       -1.5237798379    2.9758157581   -0.0642915433
C        0.7350826848    0.3791326355   -0.3881793527
C       -0.3246985908    0.7581459112    0.6812158828
C       -1.2873697215   -0.3931438467    0.9836067342
N       -2.5329428094   -0.3521874365    0.8999945255
C        1.0957345638   -1.0443918440   -0.7072469777
C        0.3907646724   -0.4271028452   -1.6046858411
H        1.4971234483    1.1618652968   -0.4603039379
H        0.2051970974    0.9744459330    1.6215928180
H       -0.7933208119   -1.3227805845    1.3079688622
H        1.6259564075   -1.9267311461   -0.3801726344
H       -0.1001498929   -0.4133807207   -2.5660048983
13   
Iteration 22 Energy -340.95659972
C       -1.0254327775    1.9851111654    0.2770846899
N       -1.5256631799    2.9733494276   -0.0685739025
C        0.7359319053    0.3787002324   -0.3869106062
C       -0.3243924053    0.7584864673    0.6816542148
C       -1.2858411641   -0.3934676597    0.9853614787
N       -2.5313050797   -0.3548207795    0.8991283488
C        1.0933489385   -1.0451481512   -0.7083174229
C        0.3907339515   -0.4244070377   -1.6052025632
H        1.4998630156    1.1597780633   -0.4569462839
H        0.2049300117    0.9769420985    1.6218224800
H       -0.7908325034   -1.3214396139    1.3130504683
H        1.6210555665   -1.9294242366   -0.3824191384
H       -0.0993960310   -0.4076163579   -2.5668693950
13   
Iteration 21 Energy -340.95659738
C       -1.0228298154    1.9888418472    0.2835161642
N       -1.5192219669    2.9811398656   -0.0560126944
C        0.7331768448    0.3800852221   -0.3905616160
C       -0.3256476808    0.7573733932    0.6802977280
C       -1.2908724272   -0.3926006767    0.9795301197
N       -2.5368634137   -0.3449144867    0.9063699543
C        1.1011923133   -1.0426086147   -0.7045001438
C        0.3909796159   -0.4330306371   -1.6031467356
H        1.4909004882    1.1665655290   -0.4672719996
H        0.2051971795    0.9690884490    1.6212780399
H       -0.7987025771   -1.3272249264    1.2920968350
H        1.6371863105   -1.9205525521   -0.3749832131
H       -0.1014946227   -0.4261187943   -2.5637500702
13   
Iteration 20 Energy -340.95658875
C       -1.0188869154    1.9933550466    0.2913333641
N       -1.5103886491    2.9912374062   -0.0388424781
C        0.7295901337    0.3817518999   -0.3950661642
C       -0.3270091772    0.7561432315    0.6790793986
C       -1.2968691480   -0.3915568060    0.9718622287
N       -2.5431081649   -0.3344775351    0.9104634949
C        1.1107828858   -1.0393094626   -0.6998010036
C        0.3905167471   -0.4439852580   -1.6001101911
H        1.4792769749    1.1749793351   -0.4807310638
H        0.2056770361    0.9598445795    1.6208591489
H       -0.8083102880   -1.3331067674    1.2687651343
H        1.6573173038   -1.9091519054   -0.3660810477
H       -0.1055884906   -0.4496801463   -2.5588684524
13   
Iteration 19 Energy -340.95656744
C       -1.0139142787    2.0000916220    0.3036021953
N       -1.4997183442    3.0051027821   -0.0131615509
C        0.7246117507    0.3839960405   -0.4021190808
C       -0.3283973892    0.7546032039    0.6769378815
C       -1.3050349111   -0.3895534674    0.9611553009
N       -2.5513172799   -0.3205295832    0.9136742118
C        1.1237937151   -1.0346849069   -0.6934484141
C        0.3904607016   -0.4594687528   -1.5963981712
H        1.4634179479    1.1859122047   -0.5002909413
H        0.2073986037    0.9463162177    1.6196185247
H       -0.8222401999   -1.3397853991    1.2389644695
H        1.6841814088   -1.8931211642   -0.3531591852
H       -0.1102414762   -0.4828351792   -2.5525128717
13   
Iteration 18 Energy -340.95653602
C       -1.0084582535    2.0057742385    0.3160074766
N       -1.4925229786    3.0158811686    0.0140050944
C        0.7205802092    0.3859296687   -0.4092757379
C       -0.3292974118    0.7535224914    0.6740809821
C       -1.3127406875   -0.3866153495    0.9506149611
N       -2.5587064853   -0.3058418612    0.9141044899
C        1.1360833256   -1.0305293072   -0.6877799293
C        0.3909426744   -0.4743010880   -1.5930328415
H        1.4490410388    1.1957509064   -0.5194903175
H        0.2091614521    0.9332008131    1.6175163176
H       -0.8363024269   -1.3441166696    1.2140273580
H        1.7090829881   -1.8782041014   -0.3414707983
H       -0.1138631962   -0.5144072917   -2.5464446866
13   
Iteration 17 Energy -340.95649864
C       -1.0077648382    2.0096707743    0.3232282235
N       -1.4931653115    3.0232767119    0.0325849671
C        0.7188306533    0.3861980948   -0.4138931738
C       -0.3265199946    0.7515977820    0.6737847909
C       -1.3179437904   -0.3835977317    0.9452177351
N       -2.5635058140   -0.2940208778    0.9122420010
C        1.1451155419   -1.0285034464   -0.6851037160
C        0.3915006329   -0.4844023360   -1.5907319242
H        1.4414729990    1.2000941029   -0.5312705069
H        0.2137106080    0.9274518703    1.6174799580
H       -0.8484009877   -1.3474534498    1.1966041447
H        1.7262369902   -1.8691693982   -0.3353516277
H       -0.1165664405   -0.5350984783   -2.5419285031
13   
Iteration 16 Energy -340.95642328
C       -0.9998465730    2.0100737560    0.3357963848
N       -1.5045411528    3.0158304217    0.0556197433
C        0.7195464627    0.3873918704   -0.4193656957
C       -0.3242752775    0.7526031918    0.6708875003
C       -1.3235677446   -0.3763920875    0.9355489866
N       -2.5680705320   -0.2677211558    0.9106361568
C        1.1555666840   -1.0259199756   -0.6813123609
C        0.3935652612   -0.4952211628   -1.5879592612
H        1.4341905871    1.2069353948   -0.5474730389
H        0.2189582546    0.9129916134    1.6148976370
H       -0.8653778712   -1.3475937967    1.1800204998
H        1.7452747217   -1.8592163999   -0.3280897216
H       -0.1184225718   -0.5577180521   -2.5363444619
13   
Iteration 15 Energy -340.95613961
C       -0.9932758283    2.0074903639    0.3491813576
N       -1.5316847854    2.9971636861    0.0725160564
C        0.7235489986    0.3847382414   -0.4234348504
C       -0.3107341466    0.7462001581    0.6766001171
C       -1.3360154597   -0.3627600414    0.9332743861
N       -2.5774362158   -0.2195159694    0.9019424305
C        1.1775335844   -1.0229846326   -0.6847905726
C        0.3962706534   -0.5079220707   -1.5841128321
H        1.4268783415    1.2120796820   -0.5634352349
H        0.2355762109    0.8982314973    1.6206268523
H       -0.9061502325   -1.3491272884    1.1659728843
H        1.7840468545   -1.8456181139   -0.3351575285
H       -0.1255577265   -0.5819318944   -2.5263206972
13   
Iteration 14 Energy -340.95549632
C       -0.9825094440    1.9977875819    0.3604136009
N       -1.5589552259    2.9635049883    0.0774207219
C        0.7288444221    0.3814491819   -0.4245253730
C       -0.2995451942    0.7389016504    0.6830332503
C       -1.3485652134   -0.3491209796    0.9340308100
N       -2.5849306273   -0.1623819469    0.8923623273
C        1.2000221590   -1.0190069940   -0.6923953995
C        0.3996866111   -0.5153755964   -1.5815524298
H        1.4188937852    1.2183607511   -0.5746155205
H        0.2497560697    0.8782235406    1.6269405039
H       -0.9514586843   -1.3477635526    1.1709443774
H        1.8239490493   -1.8323074066   -0.3516234483
H       -0.1321874589   -0.5962276001   -2.5175710520
13   
Iteration 13 Energy -340.95441508
C       -0.9778521255    1.9825301666    0.3673167800
N       -1.5818054268    2.9284196339    0.0757962880
C        0.7341438549    0.3773853740   -0.4242084999
C       -0.2873696456    0.7259741631    0.6918276218
C       -1.3602745542   -0.3389968580    0.9396009679
N       -2.5872562199   -0.0986416732    0.8801081469
C        1.2239517861   -1.0140626594   -0.7037490803
C        0.4030515646   -0.5203857378   -1.5796775529
H        1.4105418830    1.2242765632   -0.5812015406
H        0.2626975246    0.8629165106    1.6353800275
H       -1.0024896770   -1.3495190625    1.1850729713
H        1.8655479549   -1.8182768700   -0.3744684992
H       -0.1398866706   -0.6055759324   -2.5089352620
13   
Iteration 12 Energy -340.95297469
C       -0.9810280016    1.9612800158    0.3693575030
N       -1.5958104962    2.8991621487    0.0750910557
C        0.7385871859    0.3745997602   -0.4231754797
C       -0.2787651755    0.7122922647    0.6979884148
C       -1.3661382985   -0.3356693055    0.9447047882
N       -2.5801058848   -0.0379733246    0.8656825545
C        1.2423101919   -1.0090380233   -0.7136021798
C        0.4055700441   -0.5223929356   -1.5784498430
H        1.4030527592    1.2302873801   -0.5843713018
H        0.2714729717    0.8542652027    1.6405817767
H       -1.0471418517   -1.3543654158    1.2055152791
H        1.8973691848   -1.8063779878   -0.3943211016
H       -0.1463723810   -0.6100261616   -2.5021390975
13   
Iteration 11 Energy -340.95151512
C       -0.9902225463    1.9424358785    0.3681248684
N       -1.6014926999    2.8828056941    0.0762512687
C        0.7409734295    0.3735804163   -0.4225096023
C       -0.2730532641    0.7013184092    0.7016671008
C       -1.3663238370   -0.3372806885    0.9490183153
N       -2.5676664796    0.0055298946    0.8544864415
C        1.2521267091   -1.0054243348   -0.7191695907
C        0.4068098226   -0.5227272157   -1.5778402539
H        1.3982173320    1.2345895081   -0.5855320773
H        0.2761232742    0.8535265666    1.6429497572
H       -1.0762626011   -1.3614960293    1.2185790191
H        1.9142852601   -1.7989333415   -0.4050416502
H       -0.1505141512   -0.6118811395   -2.4981212280
13   
Iteration 10 Energy -340.95016118
C       -0.9997025291    1.9271518390    0.3663099659
N       -1.6032123150    2.8738835103    0.0779060631
C        0.7423134900    0.3734761945   -0.4221092307
C       -0.2698068721    0.6937641380    0.7038762212
C       -1.3645762746   -0.3404215470    0.9513791648
N       -2.5556260651    0.0355367602    0.8464175004
C        1.2574397923   -1.0029059239   -0.7224429020
C        0.4076767521   -0.5224032383   -1.5779181977
H        1.3947651073    1.2379465626   -0.5862372676
H        0.2784922674    0.8547794202    1.6443451784
H       -1.0951793325   -1.3675578519    1.2285199186
H        1.9230677769   -1.7945077928   -0.4109211050
H       -0.1526515492   -0.6126984529   -2.4962629409
13   
Iteration 9 Energy -340.94900872
C       -1.0077283657    1.9161015008    0.3645112117
N       -1.6031921948    2.8684051021    0.0796425842
C        0.7432066456    0.3737976483   -0.4221923546
C       -0.2678034999    0.6886516287    0.7060301197
C       -1.3626474442   -0.3433675825    0.9528792887
N       -2.5456151040    0.0560871192    0.8410468243
C        1.2604957777   -1.0013766685   -0.7245890110
C        0.4083454895   -0.5221444372   -1.5782886574
H        1.3925419164    1.2404221730   -0.5872273916
H        0.2788380948    0.8571068558    1.6459519759
H       -1.1074425680   -1.3723418392    1.2348057624
H        1.9278017630   -1.7920567768   -0.4142691503
H       -0.1538002622   -0.6132411057   -2.4954388334
13   
Iteration 8 Energy -340.94808307
C       -1.0138702628    1.9075717449    0.3631794044
N       -1.6026375392    2.8648664405    0.0811990016
C        0.7440400192    0.3742339374   -0.4225005142
C       -0.2671191941    0.6856260727    0.7080198831
C       -1.3611629289   -0.3460220598    0.9523275078
N       -2.5381863571    0.0698074346    0.8367851974
C        1.2625243834   -1.0004201301   -0.7262978841
C        0.4091687013   -0.5216907789   -1.5790917295
H        1.3908785487    1.2426700276   -0.5882535182
H        0.2794846666    0.8581084873    1.6468211158
H       -1.1168022408   -1.3749679851    1.2429296217
H        1.9306450049   -1.7906993105   -0.4166172702
H       -0.1539625528   -0.6130402627   -2.4956384470
13   
Iteration 7 Energy -340.94735203
C       -1.0195856765    1.9053107935    0.3611783085
N       -1.6008773216    2.8603364281    0.0828071501
C        0.7447710344    0.3745349468   -0.4228977269
C       -0.2673200426    0.6838189183    0.7096662547
C       -1.3604919905   -0.3480024135    0.9513231336
N       -2.5333367751    0.0778020543    0.8340529076
C        1.2637334576   -0.9999578544   -0.7273393542
C        0.4097855018   -0.5214076431   -1.5797820021
H        1.3894114050    1.2442556360   -0.5890332248
H        0.2813851662    0.8580519209    1.6481246109
H       -1.1229051867   -1.3759982476    1.2487164799
H        1.9322558224   -1.7899611954   -0.4178879260
H       -0.1538251460   -0.6127397260   -2.4960662429
13   
Iteration 6 Energy -340.94625530
C       -1.0250463882    1.9086976636    0.3586674308
N       -1.5983723436    2.8548711536    0.0841445955
C        0.7451224668    0.3746583858   -0.4233660779
C       -0.2674605652    0.6825469845    0.7102178770
C       -1.3603357015   -0.3491514561    0.9506498287
N       -2.5313248169    0.0806474665    0.8327479012
C        1.2643076998   -0.9998332134   -0.7278745785
C        0.4100612413   -0.5214083565   -1.5802586915
H        1.3880872103    1.2441550803   -0.5893407223
H        0.2847344234    0.8582442137    1.6518892181
H       -1.1259061793   -1.3752584736    1.2503816729
H        1.9327976693   -1.7893704059   -0.4185178559
H       -0.1536644678   -0.6127554244   -2.4964782295
13   
Iteration 5 Energy -340.94287839
C       -1.0489453278    1.8692596862    0.3770917504
N       -1.6073127633    2.8557834674    0.0708985672
C        0.7454660756    0.3767637540   -0.4236283866
C       -0.2559259452    0.6739775651    0.7166247772
C       -1.3535718415   -0.3494493609    0.9610039415
N       -2.5081671505    0.1243949805    0.8271286681
C        1.2672342360   -0.9970898745   -0.7286422470
C        0.4099576207   -0.5204606652   -1.5779500192
H        1.3914216487    1.2475352103   -0.5888286032
H        0.2906241092    0.8679547026    1.6431652057
H       -1.1471096696   -1.3916740763    1.2369810382
H        1.9367125135   -1.7869415647   -0.4193864067
H       -0.1573832574   -0.6140102064   -2.4915959171
13   
Iteration 4 Energy -340.93706342
C       -1.0953883618    1.8438082680    0.3851548179
N       -1.5988892344    2.8354293447    0.0738119057
C        0.7524164228    0.3794230528   -0.4229864232
C       -0.2566963842    0.6667227324    0.7165682968
C       -1.3422279084   -0.3509610931    0.9727266261
N       -2.4755883410    0.1722465561    0.8163664772
C        1.2721388323   -0.9960198166   -0.7274234849
C        0.4116598005   -0.5220839346   -1.5758690314
H        1.3830839661    1.2561934992   -0.5972293224
H        0.3101487439    0.8740125579    1.6449813187
H       -1.1815011765   -1.4015499552    1.2225799117
H        1.9430153607   -1.7836853241   -0.4184239443
H       -0.1591714714   -0.6174922696   -2.4873947795
13   
Iteration 3 Energy -340.93033649
C       -1.1405955864    1.8120843618    0.3947790144
N       -1.5932135011    2.8255232105    0.0768928735
C        0.7557538513    0.3815897589   -0.4250236385
C       -0.2456853856    0.6570040366    0.7171761591
C       -1.3334663383   -0.3532541535    0.9715312006
N       -2.4494671998    0.2117953466    0.8059747109
C        1.2761450583   -0.9948600102   -0.7301596843
C        0.4138963533   -0.5212005235   -1.5765783384
H        1.3859128331    1.2586529974   -0.6001031935
H        0.3141909045    0.8829714797    1.6438220752
H       -1.2089367631   -1.4049794285    1.2329959927
H        1.9478245486   -1.7822427547   -0.4219730413
H       -0.1593585264   -0.6170407032   -2.4864717619
13   
Iteration 2 Energy -340.92231813
C       -1.1947062017    1.7668547472    0.4070000887
N       -1.5903032635    2.8207636460    0.0806137920
C        0.7559676160    0.3843079906   -0.4300644341
C       -0.2240860972    0.6450122732    0.7204851244
C       -1.3254017021   -0.3569260780    0.9647731722
N       -2.4205992417    0.2546576272    0.7937742355
C        1.2805021067   -0.9927853092   -0.7367228222
C        0.4159689376   -0.5190147343   -1.5794639829
H        1.3994205930    1.2549519508   -0.5982916680
H        0.3126395188    0.9009078203    1.6418884473
H       -1.2395464515   -1.4067529305    1.2552220124
H        1.9521557277   -1.7807260231   -0.4283207102
H       -0.1590112936   -0.6152073621   -2.4880308865
13   
Iteration 1 Energy -340.91641573
C       -1.2419437214    1.7289884613    0.4181750961
N       -1.5823180362    2.8066819784    0.0845891434
C        0.7661921976    0.3849199406   -0.4255533627
C       -0.2257841463    0.6399062060    0.7183613923
C       -1.3156654319   -0.3519764047    0.9676076429
N       -2.3920159529    0.3007293975    0.7802456056
C        1.2832115727   -0.9944409764   -0.7325858893
C        0.4206498557   -0.5186993933   -1.5767158202
H        1.3859353139    1.2682137906   -0.6116289554
H        0.3255418246    0.8900076809    1.6381755410
H       -1.2597298407   -1.4015736179    1.2546303513
H        1.9569598422   -1.7823957088   -0.4292658771
H       -0.1580332290   -0.6143177362   -2.4831724994
13   
Iteration 0 Energy -340.91512886
C       -1.2902793615    1.6910060919    0.4204576526
N       -1.5804833688    2.8025902185    0.0860611765
C        0.7656522335    0.3860734783   -0.4267866362
C       -0.2072758928    0.6386295657    0.7248695233
C       -1.3080357149   -0.3509643686    0.9701163171
N       -2.3786730113    0.3202727918    0.7755473571
C        1.2823866027   -0.9935804331   -0.7383170450
C        0.4188705858   -0.5159735421   -1.5798992161
H        1.4055368995    1.2571793322   -0.6033892150
H        0.3353369422    0.9173229947    1.6391405554
H       -1.2751111801   -1.4022744398    1.2553338319
H        1.9518143727   -1.7839961519   -0.4317740805
H       -0.1567388586   -0.6102419196   -2.4884978526
13   
Iteration 1 Energy -340.91568896
C       -1.3174273723    1.6588173668    0.4042779073
N       -1.5824339321    2.7993308047    0.1092245272
C        0.7673757461    0.3836423215   -0.4248729007
C       -0.2006743713    0.6376604620    0.7298414320
C       -1.3049248241   -0.3491841710    0.9722635060
N       -2.3671676937    0.3382871896    0.7637834451
C        1.2830388519   -0.9952316924   -0.7400389490
C        0.4200511333   -0.5149113612   -1.5806688381
H        1.4104520721    1.2530049698   -0.6002278683
H        0.3464609318    0.9384048384    1.6330873035
H       -1.2880951559   -1.3995015755    1.2609483166
H        1.9513175192   -1.7871389680   -0.4348556931
H       -0.1549726566   -0.6071365669   -2.4898998201
13   
Iteration 2 Energy -340.91999436
C       -1.3670356186    1.6183882890    0.4351060862
N       -1.5788305859    2.7839517292    0.1045920390
C        0.7739456988    0.3862208004   -0.4255823017
C       -0.1882020260    0.6357171852    0.7202834135
C       -1.2976695341   -0.3425188554    0.9728537985
N       -2.3421035131    0.3783894967    0.7454506160
C        1.2863173993   -0.9945888772   -0.7428531261
C        0.4221199024   -0.5136788200   -1.5816075565
H        1.4170414485    1.2537564684   -0.6066161203
H        0.3433341723    0.9324541980    1.6368837041
H       -1.3062853500   -1.3889604201    1.2737065482
H        1.9551598325   -1.7868396758   -0.4396775945
H       -0.1547915777   -0.6062479004   -2.4896771377
13   
Iteration 3 Energy -340.92078492
C       -1.3752525803    1.6114533684    0.4358663433
N       -1.5792879292    2.7796599464    0.1063645953
C        0.7744546941    0.3868485984   -0.4258001665
C       -0.1867481175    0.6361976974    0.7234870827
C       -1.2978955498   -0.3417740178    0.9722975179
N       -2.3395280058    0.3848806607    0.7446689230
C        1.2865793201   -0.9943893094   -0.7423951787
C        0.4222069377   -0.5136405295   -1.5809491117
H        1.4188223805    1.2537682606   -0.6064375161
H        0.3499732870    0.9345725411    1.6329237874
H       -1.3108579531   -1.3885712166    1.2707237732
H        1.9554565453   -1.7865324233   -0.4390322691
H       -0.1549227807   -0.6064299585   -2.4888554122
13   
Iteration 4 Energy -340.92180936
C       -1.3864223001    1.6013500139    0.4381710252
N       -1.5797281452    2.7734871710    0.1082262213
C        0.7754224415    0.3877589823   -0.4262804026
C       -0.1839062386    0.6367164879    0.7257071568
C       -1.2977883180   -0.3402862663    0.9717111506
N       -2.3352632007    0.3943897097    0.7427285401
C        1.2871919479   -0.9941714958   -0.7423531770
C        0.4223734479   -0.5136437237   -1.5805305037
H        1.4210467993    1.2536426126   -0.6072888660
H        0.3563676669    0.9374861536    1.6319488937
H       -1.3171842032   -1.3874829175    1.2678763970
H        1.9561347727   -1.7862501197   -0.4389574725
H       -0.1552444221   -0.6069529900   -2.4880965944
13   
Iteration 5 Energy -340.92298068
C       -1.4004654664    1.5863635346    0.4419288984
N       -1.5804575964    2.7641235628    0.1109526970
C        0.7772464203    0.3890090117   -0.4269037420
C       -0.1789846941    0.6376882339    0.7276601814
C       -1.2974755655   -0.3375295287    0.9711626999
N       -2.3290829247    0.4080023120    0.7400631133
C        1.2884102889   -0.9938625851   -0.7427148680
C        0.4226478706   -0.5137034085   -1.5801059954
H        1.4241161600    1.2535537562   -0.6094214046
H        0.3621385564    0.9417539102    1.6326998895
H       -1.3264785234   -1.3853333753    1.2640060655
H        1.9574303247   -1.7859785418   -0.4395368670
H       -0.1560446022   -0.6080432640   -2.4869282994
13   
Iteration 6 Energy -340.92379319
C       -1.4156314563    1.5651810346    0.4475296716
N       -1.5838337452    2.7472358569    0.1151266630
C        0.7817742850    0.3909726033   -0.4277213250
C       -0.1710426210    0.6392927157    0.7297438570
C       -1.2984946204   -0.3323147633    0.9703165685
N       -2.3219526042    0.4274045906    0.7365917104
C        1.2913563595   -0.9931817318   -0.7439451732
C        0.4231903831   -0.5136380135   -1.5790663000
H        1.4297907584    1.2538783425   -0.6133559427
H        0.3681236736    0.9474836399    1.6344591503
H       -1.3419847385   -1.3807871706    1.2585878197
H        1.9604163213   -1.7856413819   -0.4417116380
H       -0.1587117470   -0.6098421044   -2.4836926932
13   
Iteration 7 Energy -340.92385154
C       -1.4112797059    1.5617625791    0.4491029353
N       -1.5951896737    2.7336762934    0.0989832587
C        0.7883660161    0.3898908522   -0.4257898157
C       -0.1673665177    0.6369020081    0.7323598588
C       -1.3047695269   -0.3284296959    0.9730502614
N       -2.3247693443    0.4384805142    0.7480603220
C        1.2984450569   -0.9927715323   -0.7492299671
C        0.4252181767   -0.5114770067   -1.5779929637
H        1.4351102177    1.2539617021   -0.6107817808
H        0.3698622227    0.9442682041    1.6384895828
H       -1.3561276783   -1.3777125270    1.2575950911
H        1.9685253670   -1.7863777999   -0.4523108876
H       -0.1630243619   -0.6061299733   -2.4786735267
13   
Iteration 8 Energy -340.92385994
C       -1.4119403845    1.5622135923    0.4496758881
N       -1.5940386022    2.7349060234    0.0982964448
C        0.7884745085    0.3897962331   -0.4255618278
C       -0.1679550163    0.6366177461    0.7310088368
C       -1.3044095782   -0.3291574304    0.9736463409
N       -2.3238371153    0.4384964265    0.7476698136
C        1.2984856614   -0.9928233380   -0.7494635955
C        0.4253587404   -0.5113039340   -1.5781769814
H        1.4349634884    1.2540166558   -0.6106816793
H        0.3673702372    0.9434678188    1.6385016921
H       -1.3551179890   -1.3779554673    1.2596038441
H        1.9685098597   -1.7865645489   -0.4527587946
H       -0.1628635619   -0.6056661594   -2.4788976133
13   
Iteration 9 Energy -340.92386262
C       -1.4123899636    1.5621304509    0.4480883737
N       -1.5919932966    2.7358408426    0.0981685809
C        0.7881010915    0.3894863547   -0.4253221600
C       -0.1687302495    0.6364884880    0.7305446499
C       -1.3041832301   -0.3298187041    0.9743226329
N       -2.3239802411    0.4374623964    0.7486518808
C        1.2983327047   -0.9929441532   -0.7497079291
C        0.4255217197   -0.5109841008   -1.5785307444
H        1.4345582469    1.2538186757   -0.6098875825
H        0.3663094237    0.9447553015    1.6383751561
H       -1.3545194163   -1.3785154931    1.2609479531
H        1.9682781492   -1.7868374196   -0.4532239494
H       -0.1623046903   -0.6048390209   -2.4795644935
13   
Iteration 10 Energy -340.92386352
C       -1.4126973629    1.5616349041    0.4483166666
N       -1.5908347001    2.7351246548    0.0972316438
C        0.7879979388    0.3894305395   -0.4253788000
C       -0.1690000392    0.6361038462    0.7302801429
C       -1.3044569041   -0.3297198267    0.9751007398
N       -2.3245032673    0.4370515364    0.7488556937
C        1.2982877686   -0.9928606194   -0.7500914407
C        0.4258782826   -0.5104829160   -1.5790877463
H        1.4345774378    1.2538262871   -0.6092843643
H        0.3659563252    0.9446621926    1.6377921285
H       -1.3548658044   -1.3780066662    1.2632901157
H        1.9681495521   -1.7868538885   -0.4536951561
H       -0.1614889787   -0.6038664260   -2.4804672549
13   
Iteration 11 Energy -340.92386421
C       -1.4128126455    1.5609418599    0.4475194491
N       -1.5902610221    2.7340103896    0.0949335646
C        0.7879643562    0.3891670584   -0.4250438452
C       -0.1692489566    0.6357354422    0.7305681450
C       -1.3047786845   -0.3299198341    0.9764050530
N       -2.3245951648    0.4372093069    0.7500536472
C        1.2981749543   -0.9928827970   -0.7507241574
C        0.4261998026   -0.5096639430   -1.5796964223
H        1.4347394862    1.2536121281   -0.6081006071
H        0.3656926575    0.9451638492    1.6378118939
H       -1.3551747675   -1.3779723447    1.2653402605
H        1.9678494311   -1.7871963830   -0.4547643323
H       -0.1607491986   -0.6021611146   -2.4814402807
13   
Iteration 12 Energy -340.92386463
C       -1.4129561650    1.5603244269    0.4468482333
N       -1.5906556425    2.7322590446    0.0906142087
C        0.7883432399    0.3889621873   -0.4243375063
C       -0.1692685777    0.6355127952    0.7309157913
C       -1.3045432042   -0.3300647775    0.9778964033
N       -2.3246577518    0.4366094431    0.7513839338
C        1.2975554911   -0.9931225157   -0.7514408564
C        0.4263698045   -0.5081534775   -1.5802180791
H        1.4359062084    1.2530802788   -0.6061747354
H        0.3654282934    0.9458287016    1.6380274324
H       -1.3547536593   -1.3778597973    1.2678795489
H        1.9664785485   -1.7883317425   -0.4561880200
H       -0.1602463368   -0.5990009490   -2.4823439861
13   
Iteration 13 Energy -340.92386475
C       -1.4134418462    1.5593621450    0.4458049582
N       -1.5915289019    2.7309684479    0.0886761108
C        0.7888878577    0.3888364783   -0.4238104999
C       -0.1691437533    0.6356757554    0.7309899699
C       -1.3040337272   -0.3301672217    0.9788800876