13   
Iteration 0 Energy -340.91509079
C       -1.2142443934    1.3585652150    0.6484812025
N       -1.6259864709    2.4596590113    0.4270869951
C        0.8876761035    0.3098094466   -0.4262530352
C       -0.0221210667    0.3931939323    0.7999236496
C       -1.0096741663   -0.7108876400    1.0346594106
N       -2.1479214707   -0.1328280522    0.9568881182
C        1.4329720456   -1.0063057031   -0.9162056763
C        0.5016999102   -0.4780956892   -1.6485844869
H        1.4834329718    1.2208252983   -0.5450944565
H        0.5567665484    0.6555431650    1.6972205018
H       -0.8607595060   -1.7719983344    1.2327716397
H        2.1449494435   -1.7979267534   -0.7359754170
H       -0.1276544434   -0.4988575973   -2.5252454795
13   
Iteration 1 Energy -340.91510618
C       -1.2109295507    1.3627090065    0.6479060268
N       -1.6165831524    2.4660264152    0.4248561394
C        0.8839631093    0.3088545721   -0.4275438412
C       -0.0245673950    0.3911590555    0.7991512322
C       -1.0186140598   -0.7074296690    1.0349452543
N       -2.1530056004   -0.1223193342    0.9604034905
C        1.4377937280   -1.0031139459   -0.9178656016
C        0.5018954962   -0.4822134490   -1.6489079078
H        1.4735922994    1.2239493155   -0.5471976374
H        0.5555671380    0.6500337425    1.6959473700
H       -0.8774103976   -1.7696173236    1.2339054886
H        2.1571655817   -1.7886648084   -0.7383301548
H       -0.1282386209   -0.5080377815   -2.5252329995
13   
Iteration 2 Energy -340.91511935
C       -1.2092503598    1.3748138869    0.6443204765
N       -1.6063057198    2.4813739339    0.4218623414
C        0.8779828078    0.3103044519   -0.4329674374
C       -0.0303744209    0.3941364806    0.7936459491
C       -1.0327334423   -0.6978416130    1.0254271017
N       -2.1625635951   -0.1037763495    0.9527172158
C        1.4430785633   -1.0003644204   -0.9133361545
C        0.5025607868   -0.4932187106   -1.6482336781
H        1.4594468344    1.2297339142   -0.5594505286
H        0.5508157561    0.6458547636    1.6918277263
H       -0.8997936956   -1.7616228112    1.2214953663
H        2.1703364030   -1.7774809498   -0.7288613132
H       -0.1270799901   -0.5312139982   -2.5244930764
13   
Iteration 3 Energy -340.91512867
C       -1.2797627044    1.5045192701    0.5637187971
N       -1.6369977183    2.6143299810    0.2947559123
C        0.8142900826    0.3557884477   -0.4061564796
C       -0.1346808086    0.4979511448    0.7838766794
C       -1.1743845936   -0.5602495041    1.0082028865
N       -2.2840255865    0.0611959661    0.8770210738
C        1.3910664466   -0.9769736267   -0.8042778693
C        0.4787650583   -0.5031402169   -1.5949825190
H        1.4030833321    1.2672582597   -0.5545412666
H        0.4204164398    0.7595401270    1.6956871055
H       -1.0780917354   -1.6211828487    1.2380709382
H        2.1091031818   -1.7457070247   -0.5586620399
H       -0.1188580384   -0.5810027328   -2.4908331876
13   
Iteration 4 Energy -340.91512562
C       -1.2529700208    1.8813850663    0.2628813787
N       -1.4656281850    2.9878111535   -0.1400345608
C        0.7339744443    0.4082250715   -0.4632019887
C       -0.2458163880    0.7817225710    0.6493451877
C       -1.4124638099   -0.1230737948    0.9169612055
N       -2.4336279932    0.6021015840    0.6599793146
C        1.1539705237   -1.0179570568   -0.7026582815
C        0.3486194602   -0.5156520693   -1.5863748600
H        1.4406377391    1.2216346991   -0.6592787887
H        0.2930689377    1.0741248972    1.5614809517
H       -1.4524903719   -1.1579737405    1.2562153584
H        1.7548886302   -1.8411731808   -0.3448597015
H       -0.2116422053   -0.6071949057   -2.5047869967
13   
Iteration 5 Energy -340.91512747
C       -1.2818507279    1.7687951833    0.3558134398
N       -1.5425873824    2.8780062714   -0.0093949321
C        0.7504513083    0.3965846349   -0.4398433609
C       -0.2274313222    0.6984694322    0.6957992421
C       -1.3540994592   -0.2588880048    0.9514148687
N       -2.4062440106    0.4329211585    0.7298759414
C        1.2282176630   -1.0033327173   -0.7220168731
C        0.3887976818   -0.5144477996   -1.5812521414
H        1.4183106484    1.2447672456   -0.6242587121
H        0.3125181055    0.9848777894    1.6092276604
H       -1.3491446926   -1.3040398092    1.2601808085
H        1.8696470406   -1.8082812152   -0.3942187504
H       -0.1801807697   -0.6070217730   -2.4941887993
13   
Iteration 6 Energy -340.91512824
C       -1.2909700275    1.6891909866    0.4198539915
N       -1.5834444101    2.7993005550    0.0825026434
C        0.7666929204    0.3867074010   -0.4264601109
C       -0.2061535300    0.6390493092    0.7254250430
C       -1.3053128354   -0.3520580915    0.9719202993
N       -2.3770304958    0.3172259887    0.7765636138
C        1.2804473343   -0.9934646944   -0.7407486140
C        0.4179824633   -0.5123116453   -1.5813479444
H        1.4083606491    1.2568183990   -0.6014808730
H        0.3362913034    0.9195487265    1.6392216730
H       -1.2705399715   -1.4030857657    1.2579783096
H        1.9480223106   -1.7859685621   -0.4355964965
H       -0.1581624991   -0.6035466293   -2.4899161346
13   
Iteration 7 Energy -340.91512853
C       -1.2909677190    1.6897592412    0.4200865826
N       -1.5826569570    2.8004776447    0.0841096646
C        0.7662609694    0.3865587416   -0.4267513488
C       -0.2065967630    0.6388959416    0.7249991383
C       -1.3061156874   -0.3517662478    0.9714678592
N       -2.3776210314    0.3180785777    0.7768763036
C        1.2811131764   -0.9933646529   -0.7402808173
C        0.4183172759   -0.5133224825   -1.5812029947
H        1.4073421833    1.2570340847   -0.6021088159
H        0.3359703207    0.9189360978    1.6388805436
H       -1.2718380899   -1.4028293743    1.2574451654
H        1.9493521578   -1.7851864921   -0.4347759071
H       -0.1575529291   -0.6055024405   -2.4898479062
13   
Iteration 8 Energy -340.91512877
C       -1.2906344886    1.6904167007    0.4205396420
N       -1.5814826220    2.8017245702    0.0857861257
C        0.7658186966    0.3863387906   -0.4268153114
C       -0.2070326086    0.6386472117    0.7249569633
C       -1.3072436172   -0.3514370539    0.9706749420
N       -2.3782657878    0.3192264960    0.7762407113
C        1.2819968939   -0.9933356730   -0.7391984408
C        0.4186468936   -0.5148726557   -1.5804613558
H        1.4060463580    1.2572911130   -0.6029324515
H        0.3356113723    0.9178178015    1.6390627336
H       -1.2737264803   -1.4026704533    1.2561106913
H        1.9511044022   -1.7842092190   -0.4331367399
H       -0.1570848536   -0.6083739931   -2.4890611151
13   
Iteration 9 Energy -340.91512886
C       -1.2902793615    1.6910060919    0.4204576526
N       -1.5804833688    2.8025902185    0.0860611765
C        0.7656522335    0.3860734783   -0.4267866362
C       -0.2072758928    0.6386295657    0.7248695233
C       -1.3080357149   -0.3509643686    0.9701163171
N       -2.3786730113    0.3202727918    0.7755473571
C        1.2823866027   -0.9935804331   -0.7383170450
C        0.4188705858   -0.5159735421   -1.5798992161
H        1.4055368995    1.2571793322   -0.6033892150
H        0.3353369422    0.9173229947    1.6391405554
H       -1.2751111801   -1.4022744398    1.2553338319
H        1.9518143727   -1.7839961519   -0.4317740805
H       -0.1567388586   -0.6102419196   -2.4884978526
