13   
Iteration 8 Energy -340.94788548
C       -2.4542670422    0.5783068286    0.2333423121
N       -1.4908200267    1.3842017621    0.1694555746
C        0.8299321656    0.6028455960   -0.3694354937
C       -0.3317456439    0.5570644486    0.6254848316
C       -0.9817983250   -0.7838517075    0.8827664606
N       -2.2556099335   -0.7654344776    0.6563396363
C        1.7746063318   -0.5568743734   -0.5711780189
C        0.9331814343   -0.3438527632   -1.5369049881
H        1.2021400951    1.6240683419   -0.4836195367
H        0.0029448890    0.9837664179    1.5844946495
H       -0.4768676611   -1.6803358322    1.2338855044
H        2.6031926104   -1.1136006127   -0.1602419396
H        0.5455530180   -0.5930279158   -2.5125647959
13   
Iteration 7 Energy -340.94788529
C       -2.4536784748    0.5811410139    0.2352553274
N       -1.4894189775    1.3859655950    0.1696052386
C        0.8309057001    0.6031723422   -0.3691229039
C       -0.3308631671    0.5577697624    0.6252475041
C       -0.9817328283   -0.7825235419    0.8836687574
N       -2.2558414850   -0.7624888067    0.6589033011
C        1.7746652295   -0.5575325060   -0.5704963659
C        0.9335710014   -0.3437799929   -1.5363480491
H        1.2038636045    1.6240938238   -0.4835083686
H        0.0034760886    0.9838085597    1.5848260963
H       -0.4772728909   -1.6794325017    1.2344597185
H        2.6026764034   -1.1148819145   -0.1592691529
H        0.5455857654   -0.5930338774   -2.5118590286
13   
Iteration 6 Energy -340.94788469
C       -2.4541510504    0.5841705477    0.2391666238
N       -1.4887875667    1.3875852829    0.1709271585
C        0.8311513945    0.6031057753   -0.3697825198
C       -0.3303432003    0.5579245485    0.6244647959
C       -0.9826384499   -0.7813857159    0.8837188747
N       -2.2573287888   -0.7596746317    0.6623709305
C        1.7755096153   -0.5575737886   -0.5698988462
C        0.9350735774   -0.3444219319   -1.5364114513
H        1.2041249688    1.6239622135   -0.4845413198
H        0.0041781195    0.9829851920    1.5846092359
H       -0.4784963988   -1.6793276534    1.2322591361
H        2.6034762332   -1.1142476162   -0.1576960293
H        0.5477063880   -0.5946165481   -2.5119396606
13   
Iteration 5 Energy -340.94788237
C       -2.4554701394    0.5875691323    0.2448850841
N       -1.4891668142    1.3893688215    0.1725815650
C        0.8308875147    0.6024918432   -0.3707893095
C       -0.3305705849    0.5579041535    0.6230776134
C       -0.9834135248   -0.7808096312    0.8836621806
N       -2.2589659108   -0.7565452535    0.6673377514
C        1.7763726848   -0.5576982893   -0.5693110607
C        0.9374540385   -0.3452558971   -1.5372167147
H        1.2044755523    1.6231789762   -0.4848479681
H        0.0044365147    0.9831880461    1.5830469017
H       -0.4792044650   -1.6801440327    1.2284906253
H        2.6042161475   -1.1132984997   -0.1554146960
H        0.5518180278   -0.5962487345   -2.5132309553
13   
Iteration 4 Energy -340.94787564
C       -2.4555283766    0.5858992379    0.2465191298
N       -1.4904367520    1.3884661845    0.1689396776
C        0.8348665278    0.6032902339   -0.3681027128
C       -0.3298407587    0.5606446744    0.6218132102
C       -0.9807505829   -0.7782203809    0.8864595915
N       -2.2564941628   -0.7571578644    0.6709646810
C        1.7734327315   -0.5618805684   -0.5687245282
C        0.9364936577   -0.3424453817   -1.5368284983
H        1.2165692643    1.6215658428   -0.4772626669
H        0.0025126647    0.9920653271    1.5796871971
H       -0.4746621883   -1.6761755101    1.2319810462
H        2.5973639594   -1.1231648694   -0.1546245305
H        0.5498056676   -0.5891203736   -2.5134930416
13   
Iteration 3 Energy -340.94785617
C       -2.4521966003    0.5728024116    0.2336953228
N       -1.4923819672    1.3806868786    0.1505871706
C        0.8437492168    0.6011985735   -0.3583129189
C       -0.3288364592    0.5678467771    0.6236852881
C       -0.9722680137   -0.7716876888    0.9040632608
N       -2.2465876594   -0.7624222983    0.6796065773
C        1.7628874670   -0.5768932045   -0.5730424385
C        0.9347235765   -0.3283754008   -1.5413614952
H        1.2451760679    1.6134482313   -0.4508578542
H       -0.0057742037    1.0181461869    1.5753900290
H       -0.4623641686   -1.6602610903    1.2678618439
H        2.5749083050   -1.1584511803   -0.1634237920
H        0.5481485130   -0.5524861846   -2.5234276077
13   
Iteration 2 Energy -340.94783405
C       -2.4463519441    0.5585672671    0.2170491621
N       -1.4917970254    1.3725084821    0.1328739582
C        0.8522689873    0.6017259628   -0.3490001710
C       -0.3266665378    0.5740121612    0.6261551593
C       -0.9635619960   -0.7664331945    0.9180207671
N       -2.2356749852   -0.7695918202    0.6817356643
C        1.7519896896   -0.5889783486   -0.5761146509
C        0.9294301896   -0.3153640081   -1.5424400594
H        1.2697627547    1.6085245281   -0.4298245313
H       -0.0124503559    1.0382619551    1.5737258239
H       -0.4508002872   -1.6456801176    1.3001854104
H        2.5530137684   -1.1892485901   -0.1719657798
H        0.5399021833   -0.5208193729   -2.5273848932
13   
Iteration 1 Energy -340.94780095
C       -2.4381286978    0.5412714654    0.1931872156
N       -1.4890334971    1.3623366019    0.1117722995
C        0.8596906110    0.6008273732   -0.3387662769
C       -0.3240931632    0.5796832917    0.6303750590
C       -0.9551656890   -0.7602043883    0.9363721095
N       -2.2235967383   -0.7775699106    0.6827989816
C        1.7407433188   -0.6015884854   -0.5814326030
C        0.9237503396   -0.3003496693   -1.5440897833
H        1.2909670421    1.6026293428   -0.4082705471
H       -0.0194824626    1.0563552084    1.5754777844
H       -0.4407705960   -1.6286580169    1.3407328491
H        2.5310344800   -1.2212489878   -0.1855435158
H        0.5314852788   -0.4843156137   -2.5321780967
13   
Iteration 0 Energy -340.94779072
C       -2.4358933607    0.5370976437    0.1878052516
N       -1.4882639150    1.3601425910    0.1077561526
C        0.8608335453    0.6015123067   -0.3373284367
C       -0.3232506526    0.5808783142    0.6311462873
C       -0.9527994713   -0.7590101607    0.9397754039
N       -2.2204949864   -0.7795257362    0.6831164201
C        1.7370492025   -0.6042076367   -0.5816972633
C        0.9223508317   -0.2969991579   -1.5444435380
H        1.2949390456    1.6022391527   -0.4051257779
H       -0.0204429095    1.0594806808    1.5760922313
H       -0.4377559871   -1.6253494518    1.3478981494
H        2.5241721969   -1.2283487831   -0.1865462654
H        0.5299915742   -0.4768876711   -2.5332372272
13   
Iteration 59 Energy -340.94779062
C       -2.4358659962    0.5370968240    0.1878419177
N       -1.4882609017    1.3601378617    0.1077782817
C        0.8608547290    0.6015240340   -0.3372955762
C       -0.3232233624    0.5809134125    0.6312085468
C       -0.9527569429   -0.7590010121    0.9398213518
N       -2.2204685150   -0.7795265011    0.6831652472
C        1.7370528043   -0.6042248570   -0.5816753045
C        0.9223487269   -0.2969747306   -1.5444392779
H        1.2949728958    1.6022158856   -0.4050774956
H       -0.0205603422    1.0592773479    1.5756876599
H       -0.4377536076   -1.6252679976    1.3479153650
H        2.5240705628   -1.2283241082   -0.1865762372
H        0.5300250630   -0.4768240676   -2.5331430909
13   
Iteration 58 Energy -340.94778756
C       -2.4357792172    0.5357557649    0.1869537645
N       -1.4887027750    1.3593541742    0.1064370025
C        0.8612047702    0.6015102593   -0.3368940524
C       -0.3233603486    0.5812005049    0.6309734255
C       -0.9522627522   -0.7587752376    0.9405768186
N       -2.2198409426   -0.7802628972    0.6835095705
C        1.7362496699   -0.6048945011   -0.5819555866
C        0.9222397720   -0.2960777652   -1.5447543186
H        1.2962019641    1.6018883033   -0.4039093747
H       -0.0211960309    1.0607522424    1.5755628529
H       -0.4368089833   -1.6244589309    1.3495604878
H        2.5225550858   -1.2302314309   -0.1870466580
H        0.5299349015   -0.4747383946   -2.5338025442
13   
Iteration 57 Energy -340.94778547
C       -2.4356842655    0.5349644164    0.1863382090
N       -1.4889259561    1.3587668808    0.1055891797
C        0.8614484225    0.6015182694   -0.3366242132
C       -0.3234132925    0.5813914926    0.6309390433
C       -0.9519423772   -0.7586217347    0.9411477404
N       -2.2194680145   -0.7807142536    0.6837430712
C        1.7358241941   -0.6053160124   -0.5821777491
C        0.9221394849   -0.2954782040   -1.5449401542
H        1.2970261111    1.6016594240   -0.4030845941
H       -0.0216927112    1.0613884080    1.5750466090
H       -0.4363541837   -1.6238634940    1.3507862019
H        2.5216286961   -1.2313152276   -0.1874639843
H        0.5298490057   -0.4733578734   -2.5340879718
13   
Iteration 56 Energy -340.94778418
C       -2.4358095609    0.5345119263    0.1859348060
N       -1.4889393071    1.3584425776    0.1051211850
C        0.8615167070    0.6015096814   -0.3366017358
C       -0.3234642730    0.5814292654    0.6308089574
C       -0.9518586700   -0.7585726958    0.9413575786
N       -2.2192864500   -0.7809761323    0.6837890625
C        1.7355989080   -0.6055190134   -0.5823975057
C        0.9220631691   -0.2951903724   -1.5450641886
H        1.2975758450    1.6014944105   -0.4026174949
H       -0.0219201143    1.0621553035    1.5754957761
H       -0.4360622869   -1.6236182171    1.3514584440
H        2.5213189481   -1.2319148983   -0.1876411469
H        0.5297021986   -0.4727297439   -2.5344323499
13   
Iteration 55 Energy -340.94778298
C       -2.4357213997    0.5340875740    0.1858476743
N       -1.4889904049    1.3581480378    0.1049089044
C        0.8617079720    0.6014811352   -0.3364263920
C       -0.3233651431    0.5814715331    0.6309317426
C       -0.9515404118   -0.7584530829    0.9416627535
N       -2.2190745222   -0.7812326190    0.6840218889
C        1.7353928469   -0.6058208340   -0.5824239887
C        0.9220414341   -0.2949258292   -1.5451610992
H        1.2981321277    1.6013169373   -0.4021557963
H       -0.0227009848    1.0624584166    1.5743668712
H       -0.4357096963   -1.6231917050    1.3517739417
H        2.5204950236   -1.2324231976   -0.1879093016
H        0.5297682722   -0.4718942748   -2.5342258111
13   
Iteration 54 Energy -340.94777547
C       -2.4356009929    0.5310120757    0.1838125865
N       -1.4901696806    1.3563759400    0.1017556103
C        0.8622778507    0.6016928135   -0.3357646587
C       -0.3238158306    0.5823508230    0.6301984589
C       -0.9502801831   -0.7580495273    0.9433731867
N       -2.2174431730   -0.7829625499    0.6849784122
C        1.7332006937   -0.6073688506   -0.5830451707
C        0.9217786869   -0.2926671209   -1.5460495216
H        1.3010853353    1.6006145164   -0.3994233536
H       -0.0237144168    1.0651852160    1.5741015713
H       -0.4334604461   -1.6212489367    1.3560436221
H        2.5165607193   -1.2368545630   -0.1885795020
H        0.5300165509   -0.4670577446   -2.5361898537
13   
Iteration 53 Energy -340.94777027
C       -2.4350156046    0.5290873902    0.1826949552
N       -1.4904094944    1.3549596750    0.1001768899
C        0.8628967308    0.6017457077   -0.3352080326
C       -0.3237766372    0.5825205004    0.6301525644
C       -0.9495244043   -0.7576974227    0.9447648051
N       -2.2166907672   -0.7840273611    0.6856601143
C        1.7320110246   -0.6081776905   -0.5833219759
C        0.9217052097   -0.2913407320   -1.5466512589
H        1.3027673824    1.6002272246   -0.3978415515
H       -0.0249204968    1.0668814798    1.5723920778
H       -0.4324495049   -1.6200642483    1.3583714487
H        2.5137863875   -1.2393052108   -0.1890770955
H        0.5300552881   -0.4637872209   -2.5369015532
13   
Iteration 52 Energy -340.94776315
C       -2.4361956117    0.5276301576    0.1814738430
N       -1.4906040841    1.3535398059    0.0988888152
C        0.8623611538    0.6022608085   -0.3360334000
C       -0.3234443326    0.5828115092    0.6298612546
C       -0.9485209552   -0.7576463931    0.9450702315
N       -2.2155962808   -0.7849332759    0.6865121412
C        1.7304125508   -0.6093311043   -0.5839607016
C        0.9214252290   -0.2899455682   -1.5474722284
H        1.3052784199    1.5996396188   -0.3960271557
H       -0.0260509127    1.0681526948    1.5730026352
H       -0.4309115086   -1.6184206514    1.3615550812
H        2.5110128888   -1.2414880862   -0.1892473262
H        0.5312685572   -0.4612474243   -2.5384118024
13   
Iteration 51 Energy -340.94773654
C       -2.4337941628    0.5186549618    0.1731955751
N       -1.4920638092    1.3473103728    0.0867091987
C        0.8658035928    0.6004164066   -0.3314703483
C       -0.3251895267    0.5834700054    0.6284841749
C       -0.9473600705   -0.7563354000    0.9534221933
N       -2.2132583048   -0.7887314588    0.6901485076
C        1.7274838954   -0.6131888159   -0.5879195092
C        0.9207832090   -0.2831797008   -1.5496736860
H        1.3127106871    1.5962354531   -0.3863712025
H       -0.0307682492    1.0759224817    1.5696742607
H       -0.4292335805   -1.6127257501    1.3789982385
H        2.5055996251   -1.2520672990   -0.1974115497
H        0.5297218082   -0.4447591654   -2.5425744656
13   
Iteration 50 Energy -340.94770897
C       -2.4345938583    0.5101241328    0.1688276733
N       -1.4944839308    1.3405394214    0.0783416488
C        0.8694368711    0.5999068943   -0.3286950880
C       -0.3254372137    0.5848849522    0.6279526900
C       -0.9446491214   -0.7541455584    0.9592932327
N       -2.2103788977   -0.7933400200    0.6937021945
C        1.7247207522   -0.6177675773   -0.5908383483
C        0.9212095347   -0.2772960946   -1.5516913483
H        1.3223400661    1.5933274489   -0.3772434513
H       -0.0389017157    1.0860033553    1.5640601547
H       -0.4240594557   -1.6064088478    1.3887198347
H        2.4964658536   -1.2642527045   -0.2028825609
H        0.5287662294   -0.4305533108   -2.5443352441
13   
Iteration 49 Energy -340.94766994
C       -2.4338983278    0.5012597886    0.1683306642
N       -1.4995566613    1.3361500402    0.0699925387
C        0.8690428074    0.6016651221   -0.3288579566
C       -0.3279294635    0.5875200514    0.6217122774
C       -0.9390577779   -0.7538761722    0.9625652649
N       -2.2049482769   -0.7978432061    0.7018806353
C        1.7133132362   -0.6223195940   -0.5901603302
C        0.9219016309   -0.2697933375   -1.5564001709
H        1.3309166354    1.5912142791   -0.3704000246
H       -0.0400828504    1.0901393015    1.5601132996
H       -0.4144515290   -1.6008759059    1.3995146468
H        2.4773516091   -1.2775851806   -0.1981181698
H        0.5378340816   -0.4146330952   -2.5549612872
13   
Iteration 48 Energy -340.94759025
C       -2.4411541929    0.4832282347    0.1654188450
N       -1.5065656923    1.3168587457    0.0453129127
C        0.8761654302    0.5983708146   -0.3258135410
C       -0.3305305464    0.5864576690    0.6142842074
C       -0.9376175151   -0.7500640790    0.9792894992
N       -2.2047384801   -0.8034073491    0.7254049411
C        1.7089767573   -0.6327827637   -0.6006778840
C        0.9297407939   -0.2531325000   -1.5663969367
H        1.3527536351    1.5816691431   -0.3465980376
H       -0.0586595580    1.1092684077    1.5454973883
H       -0.4086610163   -1.5854905164    1.4318869643
H        2.4600169935   -1.3044146443   -0.2134344628
H        0.5507085047   -0.3755390708   -2.5689625081
13   
Iteration 47 Energy -340.94749260
C       -2.4473146803    0.4709398557    0.1720209976
N       -1.5167317603    1.3045791334    0.0300906964
C        0.8796028226    0.5973860370   -0.3255969115
C       -0.3350993936    0.5873291484    0.6037272424
C       -0.9336047115   -0.7474947524    0.9886340582
N       -2.2035172891   -0.8069272657    0.7478560960
C        1.7006142977   -0.6406788395   -0.6045457598
C        0.9382689741   -0.2406314265   -1.5754090544
H        1.3681297993    1.5749594180   -0.3311333857
H       -0.0692448411    1.1196516173    1.5304333358
H       -0.3986485159   -1.5754915603    1.4482627048
H        2.4382221561   -1.3258669773   -0.2153919276
H        0.5697582557   -0.3467322966   -2.5837367046
13   
Iteration 46 Energy -340.94741065
C       -2.4536103675    0.4636107227    0.1800153219
N       -1.5244106339    1.2977918402    0.0223146253
C        0.8814642408    0.5971122545   -0.3267543470
C       -0.3378420547    0.5877049692    0.5966000524
C       -0.9315652927   -0.7459945646    0.9924082276
N       -2.2025064111   -0.8091795376    0.7626904972
C        1.6956506600   -0.6460953701   -0.6066178063
C        0.9450660079   -0.2335465280   -1.5811334015
H        1.3784373206    1.5704796781   -0.3219490486
H       -0.0772393677    1.1284389972    1.5220348111
H       -0.3905949920   -1.5689148998    1.4536750217
H        2.4240464601   -1.3400112409   -0.2150936881
H        0.5835395440   -0.3303742295   -2.5929788780
13   
Iteration 45 Energy -340.94735274
C       -2.4572587553    0.4611821969    0.1851069262
N       -1.5295027040    1.2931188240    0.0199681900
C        0.8825405554    0.5975975837   -0.3274682248
C       -0.3394654219    0.5890903523    0.5925716648
C       -0.9285469427   -0.7442282541    0.9944610695
N       -2.2021199784   -0.8101025484    0.7705352416
C        1.6922730089   -0.6484988640   -0.6062723359
C        0.9485758933   -0.2301314999   -1.5838092483
H        1.3830996965    1.5690112153   -0.3181431248
H       -0.0793901369    1.1302844807    1.5140708862
H       -0.3856157365   -1.5671531545    1.4536475938
H        2.4140644251   -1.3468162482   -0.2122728301
H        0.5917812101   -0.3223319922   -2.5971844206
13   
Iteration 44 Energy -340.94729239
C       -2.4597016472    0.4571024924    0.1919430947
N       -1.5341037998    1.2932437136    0.0170121289
C        0.8816733976    0.5977073677   -0.3289861695
C       -0.3414432822    0.5894965650    0.5881843399
C       -0.9270628545   -0.7445796393    0.9931772104
N       -2.1999019493   -0.8117837641    0.7785829452
C        1.6874981598   -0.6523796749   -0.6063415165
C        0.9521406141   -0.2272221698   -1.5868193425
H        1.3888636062    1.5656926750   -0.3136925057
H       -0.0861601021    1.1357960781    1.5119428348
H       -0.3780355299   -1.5623499413    1.4538371672
H        2.4053606034   -1.3545138870   -0.2106881318
H        0.6013078977   -0.3151877238   -2.6029406672
13   
Iteration 43 Energy -340.94722599
C       -2.4645400035    0.4547572196    0.1983055955
N       -1.5410080479    1.2891717060    0.0150105648
C        0.8827040504    0.5985479136   -0.3297366451
C       -0.3438052594    0.5917113021    0.5833002080
C       -0.9241570573   -0.7427867797    0.9943229908
N       -2.1989433733   -0.8128751700    0.7861065285
C        1.6839287910   -0.6548227220   -0.6055262656
C        0.9561043511   -0.2242283504   -1.5892232098
H        1.3932173688    1.5645751226   -0.3105548623
H       -0.0861849492    1.1379018534    1.5057648816
H       -0.3723464422   -1.5607820094    1.4517206726
H        2.3953011783   -1.3620348975   -0.2065497371
H        0.6101645068   -0.3081130968   -2.6077293343
13   
Iteration 42 Energy -340.94716869
C       -2.4668986671    0.4527681532    0.2036180063
N       -1.5451021244    1.2879913344    0.0140000302
C        0.8829079540    0.5987722814   -0.3306591484
C       -0.3450563469    0.5925793375    0.5804244869
C       -0.9221155464   -0.7420135007    0.9939140530
N       -2.1978915128   -0.8140024225    0.7913745126
C        1.6812951818   -0.6572519638   -0.6053017811
C        0.9587195705   -0.2223329424   -1.5909411209
H        1.3975954917    1.5625136833   -0.3075839234
H       -0.0908066273    1.1410362169    1.5015691733
H       -0.3672796038   -1.5584365140    1.4503578573
H        2.3886799851   -1.3672067565   -0.2050085527
H        0.6163873592   -0.3033948153   -2.6105522053
13   
Iteration 41 Energy -340.94712648
C       -2.4696762698    0.4512019818    0.2067568381
N       -1.5481527400    1.2868794251    0.0130865900
C        0.8832102639    0.5989487243   -0.3306729006
C       -0.3463605083    0.5936796185    0.5780244677
C       -0.9216616364   -0.7415061308    0.9938897758
N       -2.1968379041   -0.8146149765    0.7943981717
C        1.6795618380   -0.6585589167   -0.6047728755
C        0.9604232088   -0.2213017293   -1.5917119742
H        1.3992181642    1.5619493137   -0.3063050639
H       -0.0899585727    1.1427378724    1.4998115311
H       -0.3640655600   -1.5571087650    1.4482656655
H        2.3843852056   -1.3707187297   -0.2030881776
H        0.6203496245   -0.3005655962   -2.6124706603
13   
Iteration 40 Energy -340.94709352
C       -2.4704543879    0.4507589847    0.2095732049
N       -1.5509465249    1.2861447047    0.0127119488
C        0.8834862481    0.5990760017   -0.3312115757
C       -0.3470919128    0.5943341931    0.5766563499
C       -0.9198066019   -0.7407284868    0.9935649390
N       -2.1965930908   -0.8152234621    0.7968805264
C        1.6784881865   -0.6598409777   -0.6046717138
C        0.9616578026   -0.2204586674   -1.5924439616
H        1.4018293061    1.5607153666   -0.3046640245
H       -0.0931646053    1.1442182835    1.4975202663
H       -0.3616464472   -1.5562675571    1.4475993391
H        2.3815484927   -1.3733383999   -0.2025190790
H        0.6231286484   -0.2983678918   -2.6137848320
13   
Iteration 39 Energy -340.94706770
C       -2.4718914693    0.4499775710    0.2117295319
N       -1.5520451926    1.2857809051    0.0131471534
C        0.8838317104    0.5988845819   -0.3310104661
C       -0.3468335054    0.5941257316    0.5758573208
C       -0.9193597121   -0.7407106234    0.9933377621
N       -2.1958022433   -0.8157185540    0.7985577766
C        1.6777822018   -0.6610491847   -0.6047176461
C        0.9625857382   -0.2200670658   -1.5927908916
H        1.4034508688    1.5598123894   -0.3035155816
H       -0.0963351995    1.1479142672    1.4953544785
H       -0.3593563762   -1.5556809187    1.4459996764
H        2.3793052966   -1.3757511340   -0.2022785990
H        0.6251029965   -0.2964958739   -2.6144591275
13   
Iteration 38 Energy -340.94698835
C       -2.4761374068    0.4479443665    0.2164006937
N       -1.5580682398    1.2852362387    0.0105091567
C        0.8841686928    0.5989737964   -0.3309795555
C       -0.3499884610    0.5972256015    0.5720822056
C       -0.9184040876   -0.7390914387    0.9927410925
N       -2.1944679045   -0.8166088263    0.8023826754
C        1.6757501380   -0.6629637921   -0.6037729291
C        0.9648557446   -0.2187956771   -1.5934166573
H        1.4062832929    1.5585233216   -0.3016601195
H       -0.0936617218    1.1461117303    1.4938027338
H       -0.3547095449   -1.5524903662    1.4436490242
H        2.3746250065   -1.3798351977   -0.2002946804
H        0.6301896052   -0.2932076655   -2.6162322524
13   
Iteration 37 Energy -340.94692807
C       -2.4764625099    0.4471494752    0.2210133435
N       -1.5616128941    1.2841776291    0.0112716408
C        0.8850607504    0.5986346138   -0.3312260317
C       -0.3509581815    0.5980113751    0.5709794231
C       -0.9160906044   -0.7377726227    0.9916593878
N       -2.1945743432   -0.8181679920    0.8054111511
C        1.6756174060   -0.6657487207   -0.6042888901
C        0.9663529113   -0.2182030579   -1.5936738998
H        1.4113203276    1.5557376237   -0.2982244874
H       -0.1030997200    1.1535207068    1.4901929213
H       -0.3506334852   -1.5510774540    1.4408974995
H        2.3727457531   -1.3848387611   -0.2018226079
H        0.6327697035   -0.2904007238   -2.6169780626
13   
Iteration 36 Energy -340.94667418
C       -2.4869500518    0.4434509478    0.2323506357
N       -1.5759681040    1.2834693520    0.0088933418
C        0.8889121468    0.5966853072   -0.3278900199
C       -0.3551814660    0.6030228829    0.5647135512
C       -0.9131380396   -0.7338136036    0.9893257389
N       -2.1909198981   -0.8208972793    0.8111959454
C        1.6755181833   -0.6719792511   -0.6037862338
C        0.9706630230   -0.2170356877   -1.5924663441
H        1.4209720066    1.5503178723   -0.2915972477
H       -0.1097906816    1.1620909858    1.4823496037
H       -0.3391597660   -1.5444760877    1.4311722102
H        2.3676781119   -1.3965747656   -0.2025218351
H        0.6377996493   -0.2832385815   -2.6165279586
13   
Iteration 35 Energy -340.94641592
C       -2.4928712427    0.4413013592    0.2391625360
N       -1.5866105240    1.2834596850    0.0071482978
C        0.8925232036    0.5948005968   -0.3249876490
C       -0.3587038663    0.6072017751    0.5614468770
C       -0.9112848553   -0.7301334533    0.9870695123
N       -2.1897654862   -0.8229714156    0.8136511087
C        1.6782782503   -0.6767130674   -0.6044678367
C        0.9728660392   -0.2169993158   -1.5903897367
H        1.4291557246    1.5458815575   -0.2863058424
H       -0.1177108699    1.1702989773    1.4785809159
H       -0.3319478465   -1.5405209037    1.4245497371
H        2.3688776670   -1.4047124520   -0.2066668959
H        0.6376289201   -0.2798712516   -2.6135796364
13   
Iteration 34 Energy -340.94618690
C       -2.4972935430    0.4399236459    0.2434870698
N       -1.5938947640    1.2838513569    0.0064406761
C        0.8958754708    0.5932447557   -0.3218543116
C       -0.3602486038    0.6098921032    0.5596037444
C       -0.9098850555   -0.7280185330    0.9860301798
N       -2.1884976191   -0.8241078571    0.8148356247
C        1.6811295965   -0.6798339555   -0.6050473723
C        0.9742506940   -0.2172738900   -1.5882965665
H        1.4339435248    1.5431837758   -0.2826819513
H       -0.1233646728    1.1758312466    1.4744689056
H       -0.3283219433   -1.5375866908    1.4190602698
H        2.3708483152   -1.4101576694   -0.2097534179
H        0.6358937138   -0.2779261968   -2.6110814628
13   
Iteration 33 Energy -340.94599472
C       -2.4995902303    0.4401809970    0.2452775879
N       -1.5992860963    1.2839814924    0.0054493095
C        0.8985056306    0.5920260424   -0.3198427209
C       -0.3610005206    0.6120320312    0.5576186649
C       -0.9079065110   -0.7262113030    0.9854818077
N       -2.1884908676   -0.8243379558    0.8150577476
C        1.6832615223   -0.6820941130   -0.6057383955
C        0.9750132088   -0.2179811603   -1.5873272194
H        1.4349722305    1.5432406274   -0.2801663111
H       -0.1257781568    1.1802274251    1.4735980904
H       -0.3260225474   -1.5390524461    1.4164440180
H        2.3723263202   -1.4137228244   -0.2118294050
H        0.6344311312   -0.2772667215   -2.6088117864
13   
Iteration 32 Energy -340.94578982
C       -2.4988532753    0.4418177130    0.2461564127
N       -1.6027698260    1.2832879893    0.0054561352
C        0.9004074093    0.5915127503   -0.3185616803
C       -0.3606464360    0.6137215710    0.5569947676
C       -0.9043985810   -0.7251196023    0.9862479467
N       -2.1892754438   -0.8242896765    0.8156062828
C        1.6847111055   -0.6831444423   -0.6058851258
C        0.9755850346   -0.2185007898   -1.5866483255
H        1.4329252174    1.5442632679   -0.2779350045
H       -0.1268673358    1.1793367838    1.4702410309
H       -0.3273060823   -1.5391740334    1.4146639453
H        2.3736535191   -1.4154258645   -0.2123491988
H        0.6332698080   -0.2772635751   -2.6087757985
13   
Iteration 31 Energy -340.94482267
C       -2.5142461862    0.4341549526    0.2532287467
N       -1.6275849222    1.2921302823   -0.0019178752
C        0.9094552889    0.5881562608   -0.3119426554
C       -0.3594301774    0.6148685420    0.5588631440
C       -0.9077790237   -0.7223591206    0.9812536306
N       -2.1842978794   -0.8266051853    0.8163954506
C        1.6933119930   -0.6886463986   -0.6090119757
C        0.9768618596   -0.2193597027   -1.5811971712
H        1.4565724637    1.5326551058   -0.2726688133
H       -0.1406412076    1.1948191441    1.4688512029
H       -0.3192020039   -1.5314581959    1.4054718673
H        2.3834796042   -1.4233643375   -0.2227543275
H        0.6239353047   -0.2739692555   -2.5993598360
13   
Iteration 30 Energy -340.94366816
C       -2.5206225433    0.4333305320    0.2556949833
N       -1.6477138861    1.2980163210   -0.0080617236
C        0.9168086210    0.5859316014   -0.3074627702
C       -0.3532036628    0.6144830078    0.5601689236
C       -0.9047287680   -0.7203845225    0.9799908919
N       -2.1830416799   -0.8262701398    0.8160938197
C        1.6990668613   -0.6920576495   -0.6112572733
C        0.9776104486   -0.2209307043   -1.5786647235
H        1.4636120501    1.5310503977   -0.2690275342
H       -0.1462285735    1.2047013080    1.4679136305
H       -0.3176532588   -1.5355191365    1.4010097207
H        2.3891841511   -1.4281478841   -0.2275675416
H        0.6173453539   -0.2731810396   -2.5936190157
13   
Iteration 29 Energy -340.94264914
C       -2.5255633905    0.4314401702    0.2578111608
N       -1.6613071462    1.3031374917   -0.0122811464
C        0.9215410102    0.5848959310   -0.3043424603
C       -0.3474440313    0.6130627580    0.5632045354
C       -0.9038335886   -0.7202235744    0.9795872208
N       -2.1809494049   -0.8261845551    0.8163397236
C        1.7027881509   -0.6935400396   -0.6123931633
C        0.9781671533   -0.2215490904   -1.5764694458
H        1.4696730515    1.5284201389   -0.2672391115
H       -0.1499264613    1.2082074500    1.4648779553
H       -0.3186097814   -1.5340271842    1.3971878039
H        2.3933003592   -1.4301941963   -0.2302623813
H        0.6125991929   -0.2724232081   -2.5908093036
13   
Iteration 28 Energy -340.94184139
C       -2.5285426137    0.4311444142    0.2578168577
N       -1.6713294432    1.3065505774   -0.0163335463
C        0.9244205094    0.5839544068   -0.3030368397
C       -0.3431949026    0.6115721626    0.5639455815
C       -0.9031661653   -0.7195042294    0.9786615922