13   
IRC reactant Energy -340.94779072
C       -2.4358933607    0.5370976437    0.1878052516
N       -1.4882639150    1.3601425910    0.1077561526
C        0.8608335453    0.6015123067   -0.3373284367
C       -0.3232506526    0.5808783142    0.6311462873
C       -0.9527994713   -0.7590101607    0.9397754039
N       -2.2204949864   -0.7795257362    0.6831164201
C        1.7370492025   -0.6042076367   -0.5816972633
C        0.9223508317   -0.2969991579   -1.5444435380
H        1.2949390456    1.6022391527   -0.4051257779
H       -0.0204429095    1.0594806808    1.5760922313
H       -0.4377559871   -1.6253494518    1.3478981494
H        2.5241721969   -1.2283487831   -0.1865462654
H        0.5299915742   -0.4768876711   -2.5332372272
13   
IRC product Energy -340.99814085
C       -2.8259946531    0.5594852395    1.1406565379
N       -3.4439533942    1.4889410015    1.5101305925
C        1.2327732955    0.4904816757   -0.3366933138
C       -0.1395547583    0.5314990500    0.1858876392
C       -0.9900317718   -0.5679319911    0.2957806456
N       -2.2476593178   -0.5626457301    0.7499451270
C        2.0735933003   -0.7869756049   -0.2904678810
C        1.6282793071   -0.4762978703   -1.4592469853
H        1.7529842946    1.4476186970   -0.2846515305
H       -0.5172689074    1.5002953660    0.5091397380
H       -0.6338677556   -1.5502231925   -0.0062444613
H        2.6053316423   -1.4398340544    0.3845868517
H        1.4958038320   -0.6633904949   -2.5136115723
