13   
Iteration 0 Energy -340.92302025
C       -2.5462792342    0.4570791512    0.3283924474
N       -1.8948076253    1.3981084324   -0.0684069460
C        0.9771752828    0.5616689057   -0.2694825732
C       -0.1963330235    0.5280611078    0.6334301129
C       -0.8998517982   -0.7202856437    0.9928148381
N       -2.1929242716   -0.7825131257    0.8667648847
C        1.7681628540   -0.6991868048   -0.6317611699
C        0.9960059723   -0.2396613789   -1.5602197578
H        1.5085251910    1.5148675232   -0.2517034488
H       -0.2102755908    1.2864391621    1.4186461355
H       -0.3770648234   -1.6017085425    1.3631227493
H        2.4881225315   -1.4188537764   -0.2710517665
H        0.5708256041   -0.2821272544   -2.5508441048
13   
Iteration 1 Energy -340.92306172
C       -2.5402343955    0.4537985453    0.3236468528
N       -1.8946896115    1.3998706289   -0.0677383430
C        0.9771666453    0.5637950583   -0.2696010477
C       -0.1938227351    0.5326131412    0.6342858635
C       -0.8907484680   -0.7200890650    0.9868770073
N       -2.1837068302   -0.7874573436    0.8574565360
C        1.7586834761   -0.7022790618   -0.6293850659
C        0.9896387366   -0.2404099876   -1.5595143979
H        1.5121060267    1.5148183350   -0.2531904289
H       -0.2091999662    1.2887258282    1.4213586117
H       -0.3613143826   -1.5993266552    1.3526229988
H        2.4731367352   -1.4251464851   -0.2650127613
H        0.5641020982   -0.2842151867   -2.5500632087
13   
Iteration 2 Energy -340.92308805
C       -2.5368863301    0.4349381290    0.2882627860
N       -1.8949116624    1.3874967195   -0.0910310519
C        0.9756095561    0.5692257177   -0.2672139166
C       -0.1948995776    0.5319569371    0.6366476038
C       -0.8900716681   -0.7235135120    0.9855204495
N       -2.1795093161   -0.8024337614    0.8322924286
C        1.7507011667   -0.6995563812   -0.6293879328
C        0.9907254016   -0.2280284082   -1.5619679311
H        1.5105295503    1.5199210544   -0.2447182296
H       -0.2170057316    1.2871324040    1.4242409662
H       -0.3578272106   -1.5946544104    1.3659510589
H        2.4537283543   -1.4301838176   -0.2591674774
H        0.5715700711   -0.2668966540   -2.5555969967
13   
Iteration 3 Energy -340.92309170
C       -2.5345526338    0.4342152282    0.2866589849
N       -1.8934870563    1.3882412491   -0.0907071156
C        0.9779717262    0.5675153581   -0.2686563105
C       -0.1920229359    0.5337477344    0.6361048205
C       -0.8864041920   -0.7227437541    0.9831231474
N       -2.1754399494   -0.8033611387    0.8287554066
C        1.7494060879   -0.7030636849   -0.6328678192
C        0.9872979210   -0.2302857201   -1.5630452326
H        1.5163367811    1.5164071867   -0.2471903411
H       -0.2123648669    1.2894099664    1.4233203630
H       -0.3543943270   -1.5940666991    1.3635606684
H        2.4491483421   -1.4377330513   -0.2642348990
H        0.5641440477   -0.2675531711   -2.5549097337
13   
Iteration 4 Energy -340.92309265
C       -2.5335336473    0.4327934230    0.2830377482
N       -1.8924821595    1.3868589360   -0.0940813193
C        0.9784196697    0.5674575422   -0.2685278173
C       -0.1915438867    0.5335933440    0.6362494157
C       -0.8861893707   -0.7225330570    0.9843389945
N       -2.1748766265   -0.8039490954    0.8275744993
C        1.7492336185   -0.7031068964   -0.6340167195
C        0.9873355645   -0.2290988356   -1.5637565845
H        1.5170925969    1.5161199828   -0.2462414888
H       -0.2124234230    1.2899990273    1.4226886166
H       -0.3543825701   -1.5927777224    1.3675880043
H        2.4462229660   -1.4401991952   -0.2649733696
H        0.5639797140   -0.2653410789   -2.5556120077
13   
Iteration 5 Energy -340.92309282
C       -2.5339493137    0.4327828449    0.2823127752
N       -1.8930383988    1.3866765900   -0.0955396333
C        0.9780605349    0.5674646002   -0.2695161427
C       -0.1919618109    0.5342971770    0.6352042164
C       -0.8862927749   -0.7217657843    0.9840896648
N       -2.1749820714   -0.8035455744    0.8275483201
C        1.7486551521   -0.7033681978   -0.6345220695
C        0.9865820942   -0.2297792645   -1.5643250947
H        1.5169394510    1.5160258015   -0.2477508190
H       -0.2129966372    1.2913789262    1.4209887324
H       -0.3542854977   -1.5917284177    1.3677180944
H        2.4448389511   -1.4409883297   -0.2649991631
H        0.5628654350   -0.2664282799   -2.5559974933
