13   
Iteration 0 Energy -340.89895474
C       -2.2111191539    1.2942832413    0.6569406417
N       -1.3334357850    2.0160953959    0.2481932119
C        1.0129717556    0.2756588555   -0.4385961172
C        0.0297044809    0.5384014170    0.6371751146
C       -1.0200530632   -0.4348679307    0.9943567436
N       -2.2626269411   -0.0503292887    1.0350068817
C        1.5358586759   -1.1297591523   -0.7350056486
C        0.6966394219   -0.6513506990   -1.5931426663
H        1.6798307480    1.1225252064   -0.6115653404
H        0.3695850824    1.1645998321    1.4630578204
H       -0.7934746497   -1.4784652851    1.2121485782
H        2.1834807567   -1.9180043105   -0.3800377195
H        0.1077330474   -0.7499205590   -2.4930708134
13   
Iteration 1 Energy -340.89900231
C       -2.2140331700    1.2868361492    0.6490802431
N       -1.3323353905    2.0047836710    0.2387185398
C        1.0141921013    0.2784504155   -0.4388977978
C        0.0300042336    0.5407137705    0.6373092193
C       -1.0172945248   -0.4351532363    1.0000467372
N       -2.2603145930   -0.0552082623    1.0386069712
C        1.5277906793   -1.1301696059   -0.7345575399
C        0.6966217340   -0.6443314529   -1.5967400472
H        1.6864057533    1.1224113259   -0.6095207758
H        0.3709309684    1.1674766719    1.4630190562
H       -0.7882271084   -1.4769591814    1.2238829361
H        2.1672877861   -1.9242861167   -0.3779031019
H        0.1120415127   -0.7381951755   -2.5000543801
13   
Iteration 2 Energy -340.89907080
C       -2.2190367376    1.2758010956    0.6390905366
N       -1.3420781663    1.9984659069    0.2275225349
C        1.0165489884    0.2791855028   -0.4376579013
C        0.0311109742    0.5438143757    0.6367091658
C       -1.0110408634   -0.4354598387    1.0065572625
N       -2.2561981567   -0.0630629739    1.0409685750
C        1.5169254169   -1.1339641003   -0.7351570500
C        0.6969982984   -0.6361905961   -1.6011569778
H        1.6968827444    1.1177550501   -0.6030673903
H        0.3714488326    1.1741477395    1.4600843319
H       -0.7762877779   -1.4737940452    1.2405966061
H        2.1449250985   -1.9366763824   -0.3772881023
H        0.1183186758   -0.7204376322   -2.5092062881
13   
Iteration 3 Energy -340.89915310
C       -2.2253679278    1.2605592458    0.6234757007
N       -1.3538986568    1.9871209026    0.2076054752
C        1.0202969617    0.2783360971   -0.4343861731
C        0.0317541291    0.5476702205    0.6354773119
C       -1.0033827887   -0.4355261799    1.0154137955
N       -2.2516076442   -0.0734268562    1.0425179565
C        1.5034491137   -1.1397357681   -0.7379396126
C        0.6967327570   -0.6253103106   -1.6063750755
H        1.7119585952    1.1092089617   -0.5912297421
H        0.3684257687    1.1866302942    1.4537102222
H       -0.7602103950   -1.4682188387    1.2654698392
H        2.1169385126   -1.9537733551   -0.3804415146
H        0.1246750132   -0.6942774317   -2.5198627472
13   
Iteration 4 Energy -340.89925409
C       -2.2337107669    1.2392639947    0.6001449894
N       -1.3689312604    1.9691273877    0.1762125372
C        1.0265657622    0.2760073618   -0.4285987645
C        0.0318464265    0.5529429095    0.6329554644
C       -0.9935919581   -0.4351462885    1.0268834761
N       -2.2459249615   -0.0873202066    1.0430632848
C        1.4862039472   -1.1476951169   -0.7426356903
C        0.6968194700   -0.6103269112   -1.6127691621
H        1.7339483802    1.0958340690   -0.5726379425
H        0.3601041645    1.2076345373    1.4420868136
H       -0.7388563667   -1.4595085366    1.2989357862
H        2.0800251807   -1.9770002444   -0.3869530273
H        0.1331096997   -0.6573577703   -2.5327548297
13   
Iteration 5 Energy -340.89934106
C       -2.2420685115    1.2164615259    0.5745479713
N       -1.3837899421    1.9483184712    0.1406564376
C        1.0343576515    0.2728161382   -0.4220376439
C        0.0315204698    0.5584279975    0.6290177999
C       -0.9836606041   -0.4342905297    1.0378030244
N       -2.2400940079   -0.1015785508    1.0427346002
C        1.4694334486   -1.1560095216   -0.7473304391
C        0.6993990787   -0.5948049951   -1.6193949389
H        1.7581163131    1.0805987029   -0.5517779017
H        0.3488251579    1.2315388541    1.4272794481
H       -0.7170148336   -1.4495578026    1.3318191082
H        2.0420588647   -2.0009523579   -0.3936296778
H        0.1450505843   -0.6188415590   -2.5458578256
13   
Iteration 6 Energy -340.89940603
C       -2.2490366931    1.1930017787    0.5477348259
N       -1.3965793138    1.9253081776    0.1028065127
C        1.0434282639    0.2669192594   -0.4158188737
C        0.0315422779    0.5623468209    0.6234280167
C       -0.9739015832   -0.4338243366    1.0475261868
N       -2.2340215165   -0.1156221459    1.0415953051
C        1.4533679798   -1.1666204337   -0.7520239401
C        0.7044832039   -0.5816323708   -1.6265126806
H        1.7837038504    1.0618551244   -0.5306591093
H        0.3371789287    1.2545044338    1.4098147012
H       -0.6961548214   -1.4397316102    1.3628110923
H        2.0038634828   -2.0269122997   -0.4001344421
H        0.1602813956   -0.5827905415   -2.5591965387
13   
Iteration 7 Energy -340.89944728
C       -2.2532920204    1.1691032771    0.5188849735
N       -1.4054014146    1.8996444256    0.0619911037
C        1.0533726120    0.2549126307   -0.4121554215
C        0.0327291354    0.5622552999    0.6147889855
C       -0.9646030405   -0.4349850610    1.0550188491
N       -2.2276749904   -0.1292399472    1.0388543563
C        1.4367494416   -1.1833264619   -0.7583739754
C        0.7105821934   -0.5747612974   -1.6355694005
H        1.8105980524    1.0357294481   -0.5123225080
H        0.3276775754    1.2731990199    1.3883500616
H       -0.6776334448   -1.4315049440    1.3912858486
H        1.9641437551   -2.0586514421   -0.4081322469
H        0.1768227716   -0.5535287578   -2.5739413914
13   
Iteration 8 Energy -340.89946694
C       -2.2557297356    1.1372549787    0.4685169508
N       -1.4114278966    1.8601927271   -0.0072290019
C        1.0620947913    0.2217645108   -0.4267211138
C        0.0343111782    0.5509676616    0.5861445386
C       -0.9563865723   -0.4411869608    1.0518255006
N       -2.2217013819   -0.1457484831    1.0248111099
C        1.4144324281   -1.2237612457   -0.7739994169
C        0.7132217870   -0.5957333917   -1.6573949669
H        1.8380779589    0.9851403874   -0.5173458225
H        0.3207504415    1.2859714808    1.3401289285
H       -0.6619231981   -1.4255542436    1.4163511295
H        1.9161730162   -2.1127708833   -0.4204954492
H        0.1896991949   -0.5569470870   -2.6008634315
13   
Iteration 9 Energy -340.89946380
C       -2.3837247447    0.9922552022    0.1281031147
N       -1.5915010469    1.6618892529   -0.4931735469
C        0.9575387879    0.1001497878   -0.6998936764
C       -0.0632855542    0.5519986621    0.2723150869
C       -0.9866696435   -0.3905040201    0.9369419030
N       -2.2665948004   -0.1684511093    0.8995763290
C        1.3366841462   -1.3725163014   -0.8401184014
C        0.6072703515   -0.8951645955   -1.7921122691
H        1.7130491024    0.8584484673   -0.9176888573
H        0.2007234669    1.4210304841    0.8771105050
H       -0.6294911407   -1.2784689513    1.4590955686
H        1.8639500822   -2.1903044432   -0.3707849318
H        0.0663811763   -1.0032861499   -2.7201685831
13   
Iteration 10 Energy -340.89946832
C       -2.2890448376    1.0926466078    0.3530115017
N       -1.4567319076    1.8005453170   -0.1648237585
C        1.0376997378    0.1754650688   -0.5099335837
C        0.0091138531    0.5444036692    0.4885316201
C       -0.9655182703   -0.4351015827    1.0112336691
N       -2.2349078428   -0.1586100479    0.9758364859
C        1.3866605306   -1.2825123535   -0.8028991850
C        0.6871218561   -0.6867882564   -1.7095807060
H        1.8149136446    0.9335914656   -0.6296927908
H        0.2887180541    1.3219511526    1.2012664873
H       -0.6554467463   -1.3948174011    1.4252473959
H        1.8860832370   -2.1589440463   -0.4162411764
H        0.1631195790   -0.6813413730   -2.6535120137
13   
Iteration 11 Energy -340.89946849
C       -2.3427732025    1.1107537184    0.2488409515
N       -1.4894625146    1.8130268112   -0.2417673966
C        1.0136800628    0.1815598519   -0.4747074085
C       -0.0526630491    0.5605029191    0.4794868410
C       -1.0487970891   -0.4132920270    0.9714697497
N       -2.3153477911   -0.1354706753    0.8833689155
C        1.3775546466   -1.2790871627   -0.7348130809
C        0.7109896538   -0.6976085027   -1.6750048169
H        1.7929270771    0.9404165528   -0.5748890189
H        0.2000212866    1.3439758777    1.1957901576
H       -0.7569522069   -1.3699685829    1.4052468271
H        1.8644515710   -2.1487256306   -0.3180115455
H        0.2229471183   -0.7067786165   -2.6380014694
13   
Iteration 12 Energy -340.89946862
C       -2.3859528368    1.1677265380    0.1232748521
N       -1.5099418489    1.8590546432   -0.3423015968
C        0.9963825927    0.2181665090   -0.4381616237
C       -0.1097658628    0.6156759539    0.4613798408
C       -1.1291932701   -0.3472794543    0.9260949334
N       -2.3899039061   -0.0676472531    0.7793155001
C        1.3656571431   -1.2476986751   -0.6586264480
C        0.7437726088   -0.6792485437   -1.6365983487
H        1.7823072240    0.9727604253   -0.5157243727
H        0.1134009351    1.4108745770    1.1745557307
H       -0.8592840330   -1.2973119628    1.3877768122
H        1.8300571850   -2.1120463573   -0.2066304879
H        0.2988338838   -0.7022192842   -2.6200268444
