13   
Iteration 1 Energy -340.92257155
C       -2.5925147339    1.6227026393   -0.4178798847
N       -1.6565230092    1.0999117850    0.0716897805
C        0.6791798756    0.5933352477   -0.3788143994
C       -0.4927242589    0.4890083336    0.6208878077
C       -0.7593932813   -0.9525811991    1.0613541805
N       -1.8334816262   -1.5761072474    0.9324656248
C        1.7594118508   -0.4466198558   -0.4848647239
C        0.9021807931   -0.4255952087   -1.4579271909
H        0.9141449162    1.6448916492   -0.5745792441
H       -0.2253450086    1.0486052492    1.5294336627
H        0.1037775217   -1.4430508369    1.5385588001
H        2.6519912627   -0.8543266028   -0.0336716763
H        0.5492956980   -0.8001739535   -2.4066527371
