13   
Iteration 0 Energy -340.94849453
C       -2.5925147339    1.6227026393   -0.4178798847
N       -1.6565230092    1.0999117850    0.0716897805
C        0.6791798756    0.5933352477   -0.3788143994
C       -0.4927242589    0.4890083336    0.6208878077
C       -0.7593932813   -0.9525811991    1.0613541805
N       -1.8334816262   -1.5761072474    0.9324656248
C        1.7594118508   -0.4466198558   -0.4848647239
C        0.9021807931   -0.4255952087   -1.4579271909
H        0.9141449162    1.6448916492   -0.5745792441
H       -0.2253450086    1.0486052492    1.5294336627
H        0.1037775217   -1.4430508369    1.5385588001
H        2.6519912627   -0.8543266028   -0.0336716763
H        0.5492956980   -0.8001739535   -2.4066527371
13   
Iteration 1 Energy -340.94852051
C       -2.5900652113    1.6298965421   -0.4170684881
N       -1.6574885870    1.1029233770    0.0692154361
C        0.6787197336    0.5918911034   -0.3804403069
C       -0.4952009123    0.4873646058    0.6186503918
C       -0.7638451309   -0.9527260747    1.0643931862
N       -1.8336365037   -1.5856991593    0.9435972327
C        1.7617126746   -0.4471368139   -0.4864243471
C        0.9058354864   -0.4242290033   -1.4627876590
H        0.9135945723    1.6429736652   -0.5741471941
H       -0.2283405634    1.0470533217    1.5267177790
H        0.0990334106   -1.4409539206    1.5438481249
H        2.6537085300   -0.8544280439   -0.0355727300
H        0.5563771729   -0.7961496029   -2.4130561101
13   
Iteration 2 Energy -340.94852306
C       -2.5910263672    1.6285761921   -0.4151644096
N       -1.6581284424    1.1010830896    0.0683389775
C        0.6788738376    0.5929989075   -0.3812620223
C       -0.4949429123    0.4863242053    0.6175817668
C       -0.7612200203   -0.9529409684    1.0646172524
N       -1.8358607749   -1.5768754134    0.9393670155
C        1.7621130074   -0.4465188994   -0.4857007366
C        0.9060429074   -0.4244602227   -1.4626903112
H        0.9135111936    1.6437549755   -0.5755687736
H       -0.2288459703    1.0462146650    1.5255788755
H        0.0982977980   -1.4458996822    1.5458048018
H        2.6540047038   -0.8535604337   -0.0348784477
H        0.5568192358   -0.7975788393   -2.4124063745
13   
Iteration 3 Energy -340.94852726
C       -2.5910372579    1.6294257714   -0.4155565136
N       -1.6577847809    1.1011936756    0.0676730399
C        0.6789987805    0.5931872943   -0.3808725378
C       -0.4948513389    0.4868541860    0.6173955428
C       -0.7619664597   -0.9524355925    1.0630062436
N       -1.8346978471   -1.5801043565    0.9390893556
C        1.7615019910   -0.4468674228   -0.4852115354
C        0.9056599860   -0.4246530580   -1.4618641339
H        0.9142440566    1.6439619762   -0.5751963804
H       -0.2288061890    1.0468065889    1.5255763483
H        0.0985924544   -1.4437606810    1.5437603733
H        2.6534679985   -0.8543552851   -0.0344615068
H        0.5562485507   -0.7980152943   -2.4116183990
13   
Iteration 4 Energy -340.94852795
C       -2.5911985701    1.6306651680   -0.4153421289
N       -1.6579622975    1.1010240260    0.0666357643
C        0.6788893905    0.5922950913   -0.3809882749
C       -0.4952682158    0.4867054017    0.6169719470
C       -0.7630539833   -0.9521519827    1.0629867346
N       -1.8358600879   -1.5798572594    0.9392963813
C        1.7621086089   -0.4471000160   -0.4855363804
C        0.9068433576   -0.4248281036   -1.4624901835
H        0.9140266181    1.6431609936   -0.5749281277
H       -0.2294792992    1.0471710307    1.5249868690
H        0.0971666306   -1.4436363809    1.5441579730
H        2.6545220357   -0.8540730381   -0.0351173254
H        0.5583581592   -0.7978185799   -2.4127647070
13   
Iteration 5 Energy -340.94852880
C       -2.5914334027    1.6329296571   -0.4149630248
N       -1.6582184712    1.1007423354    0.0643103514
C        0.6790586868    0.5923501714   -0.3814233986
C       -0.4957585113    0.4865992528    0.6155968839
C       -0.7636747237   -0.9520448398    1.0615855060
N       -1.8362484995   -1.5802593188    0.9376188221
C        1.7620178577   -0.4474781330   -0.4847785236
C        0.9076682867   -0.4250832765   -1.4625213367
H        0.9147972538    1.6431026097   -0.5753100576
H       -0.2307900301    1.0475639838    1.5235771828
H        0.0962115502   -1.4436923440    1.5431909091
H        2.6543915160   -0.8543703369   -0.0341693850
H        0.5600480668   -0.7982521596   -2.4130547297
13   
Iteration 6 Energy -340.94852903
C       -2.5912773299    1.6345998467   -0.4155972160
N       -1.6583323697    1.1006011976    0.0620322997
C        0.6794127746    0.5921666976   -0.3817490630
C       -0.4962430706    0.4865930232    0.6143523346
C       -0.7644492366   -0.9520073314    1.0604253930
N       -1.8372083917   -1.5796986447    0.9356569434
C        1.7622032352   -0.4479139179   -0.4842164157
C        0.9084428514   -0.4254688554   -1.4625376791
H        0.9155250653    1.6428443309   -0.5755535544
H       -0.2321251579    1.0478022542    1.5223839018
H        0.0950289553   -1.4438639837    1.5425503366
H        2.6545243465   -0.8545360976   -0.0333402180
H        0.5613527517   -0.7986561497   -2.4132214530
13   
Iteration 7 Energy -340.94852907
C       -2.5909678514    1.6352316598   -0.4167753427
N       -1.6583051700    1.1006679637    0.0607069422
C        0.6795951821    0.5920745708   -0.3819836825
C       -0.4965289185    0.4866718557    0.6136307058
C       -0.7648936201   -0.9520353971    1.0596713265
N       -1.8377077440   -1.5794565501    0.9344576605
C        1.7620735032   -0.4483334375   -0.4838829960
C        0.9088452898   -0.4255456946   -1.4627060946
H        0.9159763460    1.6427264394   -0.5756231174
H       -0.2328629103    1.0478433157    1.5217906505
H        0.0945015626   -1.4437936052    1.5420605051
H        2.6541074173   -0.8550275277   -0.0325123730
H        0.5620687508   -0.7985172152   -2.4135856103
