13   
Iteration 1 Energy -340.92501835
C       -2.1253079348    1.2818694559    0.4638327256
N       -0.9819064394    1.7733379770    0.2840190942
C        0.9280813135    0.3387762898   -0.4624247053
C       -0.0750153952    0.6445950397    0.6525584072
C       -1.0576434347   -0.4459990936    1.0178859812
N       -2.2869214291   -0.0614361034    0.9115432220
C        1.4898826200   -1.0404928606   -0.6949070857
C        0.6315505496   -0.6295082051   -1.5756805616
H        1.5486288671    1.2148648295   -0.6724376776
H        0.4750060716    0.9572519570    1.5544279493
H       -0.7997747461   -1.4500077382    1.3484514393
H        2.1760699088   -1.7949700846   -0.3386480426
H        0.0773500487   -0.7882814632   -2.4886207463
13   
Iteration 1 Energy -340.97170795
C       -1.4077009182   -1.5153157039    0.0228957714
N       -2.0995855304   -1.6282173074   -0.9157349678
C        0.3197792652    1.3041785923   -0.1827202233
C        0.2103080972    0.8015025420    1.0769288146
C        0.0052044355   -0.5436149609    1.5824954645
N       -0.6700444377   -1.5534833878    1.1265109885
C        0.7301870791   -0.5800725760   -1.7915234928
C        0.4238700489    0.6739548142   -1.4983090814
H        0.4116118330    2.3893010978   -0.2292289908
H        0.3476152502    1.5231772116    1.8818656991
H        0.4566356774   -0.7290803359    2.5601506300
H        0.9884493077   -1.5072942435   -1.3003276584
H        0.2836698922    1.3649642577   -2.3330029537
