13   
Climbing Image - Chain 47 Image 12 Energy  -340.9443734601 (+5.145 kcal/mol) RMSGrad 0.024 eV/Ang
C       -1.7529812317    2.2842239499   -0.2020758026
N       -1.0734096956    1.4500549374    0.2736455716
C        0.9801034988    0.1972680862   -0.1736526411
C       -0.2023110211    0.4465221721    0.7948315986
C       -0.9950647627   -0.8401513104    1.1354775501
N       -1.9505734638   -0.8868717034    1.9358928799
C        1.0537821536   -1.0242288951   -1.0544660508
C        0.7431654873    0.0856868723   -1.6509896019
H        1.9010050667    0.6630553819    0.1847865455
H        0.1976766496    0.8265693616    1.7411334773
H       -0.6458130932   -1.7671851161    0.6552095745
H        1.2613230360   -2.0825221204   -1.0941527385
H        0.4875048454    0.6440596676   -2.5373618027
