13   
Iteration 0 Energy -340.94437346
C       -1.7529812317    2.2842239499   -0.2020758026
N       -1.0734096956    1.4500549374    0.2736455716
C        0.9801034988    0.1972680862   -0.1736526411
C       -0.2023110211    0.4465221721    0.7948315986
C       -0.9950647627   -0.8401513104    1.1354775501
N       -1.9505734638   -0.8868717034    1.9358928799
C        1.0537821536   -1.0242288951   -1.0544660508
C        0.7431654873    0.0856868723   -1.6509896019
H        1.9010050667    0.6630553819    0.1847865455
H        0.1976766496    0.8265693616    1.7411334773
H       -0.6458130932   -1.7671851161    0.6552095745
H        1.2613230360   -2.0825221204   -1.0941527385
H        0.4875048454    0.6440596676   -2.5373618027
13   
Iteration 1 Energy -340.94442227
C       -1.7647294153    2.2689885640   -0.2208014769
N       -1.0730041614    1.4467348757    0.2588859514
C        0.9859383718    0.1884363053   -0.1684215124
C       -0.2018686273    0.4491534224    0.7917589604
C       -0.9983192205   -0.8334933716    1.1370321738
N       -1.9526310991   -0.8775246375    1.9387279072
C        1.0680967213   -1.0441262735   -1.0336648864
C        0.7584023185    0.0569225697   -1.6460730133
H        1.9049659427    0.6574123210    0.1913906049
H        0.1957424316    0.8365530286    1.7362482882
H       -0.6528402433   -1.7590434315    0.6507760634
H        1.2794057993   -2.1020490470   -1.0617377394
H        0.5080448039    0.5979725603   -2.5448734734
13   
Iteration 2 Energy -340.94448696
C       -1.7539154491    2.2659067882   -0.2259311388
N       -1.0576452938    1.4444569058    0.2485157128
C        1.0016291818    0.1822803077   -0.1727591580
C       -0.1874331882    0.4475421500    0.7847914021
C       -0.9875398365   -0.8323036199    1.1317050676
N       -1.9322066699   -0.8724642004    1.9446809565
C        1.0946239296   -1.0597464973   -1.0235757820
C        0.7770708939    0.0318928369   -1.6490774547
H        1.9179427633    0.6599343295    0.1826954629
H        0.2097121027    0.8366961550    1.7288170368
H       -0.6576380987   -1.7566272575    0.6327626488
H        1.3165367914   -2.1159648880   -1.0380692878
H        0.5248467605    0.5598799685   -2.5552240056
13   
Iteration 3 Energy -340.94452769
C       -1.7363985164    2.2313248034   -0.2640491398
N       -1.0269470554    1.4234907613    0.2144474926
C        1.0404145028    0.1635940456   -0.1857591727
C       -0.1483195857    0.4427623871    0.7673991236
C       -0.9365692475   -0.8388899376    1.1313101681
N       -1.8683745709   -0.8855946205    1.9586756975
C        1.1415775902   -1.1054808815   -0.9946101008
C        0.8127195111   -0.0387645425   -1.6561157397
H        1.9535556111    0.6598152420    0.1517190339
H        0.2462527034    0.8521735158    1.7038376513
H       -0.6078445100   -1.7599190083    0.6252887460
H        1.3734301393   -2.1592328119   -0.9753337482
H        0.5544981513    0.4517739012   -2.5813039383
13   
Iteration 4 Energy -340.94447100
C       -1.7645427577    2.2472345631   -0.2898824525
N       -1.0781656636    1.4367497295    0.2167662589
C        0.9866169276    0.1761593098   -0.1553600135
C       -0.2145945206    0.4516398200    0.7839098050
C       -1.0213568590   -0.8196479783    1.1490143308
N       -1.9772677294   -0.8363902747    1.9501101780
C        1.0949017394   -1.0764390826   -0.9880979041
C        0.7782513266    0.0051071613   -1.6310588055
H        1.8967462314    0.6636034133    0.2026564196
H        0.1710504598    0.8591202982    1.7245205388
H       -0.6880070832   -1.7581002718    0.6798024403
H        1.3224621861   -2.1313975325   -0.9873644892
H        0.5323868804    0.5221177870   -2.5451129387
13   
Iteration 5 Energy -340.94451759
C       -1.7374090882    2.2284455425   -0.2905528926
N       -1.0376384873    1.4226207422    0.2051406406
C        1.0292071253    0.1635666007   -0.1771791007
C       -0.1644791783    0.4443608707    0.7699225408
C       -0.9607053835   -0.8303958753    1.1443295829
N       -1.9037036706   -0.8557561725    1.9600348088
C        1.1341614486   -1.1029098475   -0.9893849156
C        0.8080870260   -0.0336444110   -1.6480478395
H        1.9410834293    0.6584667555    0.1657337452
H        0.2269533605    0.8590047598    1.7050817722
H       -0.6304832264   -1.7637895678    0.6628159711
H        1.3650354449   -2.1569636306   -0.9718560615
H        0.5529955789    0.4638123241   -2.5703856999
13   
Iteration 6 Energy -340.94453878
C       -1.7351411054    2.2270489125   -0.2726750907
N       -1.0281373282    1.4200517445    0.2106826466
C        1.0392981602    0.1626525361   -0.1846914926
C       -0.1509797576    0.4406236267    0.7675248557
C       -0.9425076358   -0.8382406775    1.1367052452
N       -1.8765651916   -0.8743830414    1.9620359571
C        1.1429109564   -1.1053730998   -0.9949529617
C        0.8135589808   -0.0379626012   -1.6550145511
H        1.9516766938    0.6592637796    0.1543351109
H        0.2431263324    0.8516984923    1.7032658799
H       -0.6157840641   -1.7645412647    0.6392932294
H        1.3757088981   -2.1589858011   -0.9765828700
H        0.5556510899    0.4546563362   -2.5792083167
13   
Iteration 7 Energy -340.94459237
C       -1.6953483629    2.2513426787   -0.3435335772
N       -1.0082786040    1.4452364696    0.1692246234
C        1.0533263572    0.1616678017   -0.1684707996
C       -0.1523994140    0.4645420793    0.7561525099
C       -0.9654784991   -0.7994336290    1.1295192001
N       -1.9095815139   -0.8127777519    1.9440170745
C        1.1715949601   -1.1223777965   -0.9508884616
C        0.8550216314   -0.0678504955   -1.6376382581
H        1.9596545649    0.6647276138    0.1769848695
H        0.2287891661    0.8849998921    1.6930226430
H       -0.6478428107   -1.7370246920    0.6478341500
H        1.4043678281   -2.1755135610   -0.9060485911
H        0.6134868064    0.4102491229   -2.5738338610
13   
Iteration 8 Energy -340.94462257
C       -1.6481132360    2.2641885957   -0.3996343594
N       -0.9728167599    1.4579868890    0.1284064321
C        1.0845222557    0.1514205617   -0.1583307200
C       -0.1322593533    0.4801780602    0.7423504460
C       -0.9577884181   -0.7741138968    1.1192574756
N       -1.9104543747   -0.7757314730    1.9236704390
C        1.2086795162   -1.1541752926   -0.9029970585
C        0.9041416694   -0.1186858183   -1.6234095009
H        1.9882306876    0.6610069711    0.1847807401
H        0.2370253308    0.9129996126    1.6784204593
H       -0.6411985832   -1.7166262488    0.6461967553
H        1.4378605509   -2.2058699220   -0.8238089886
H        0.6756667630    0.3314294078   -2.5765798994
13   
Iteration 9 Energy -340.94458184
C       -1.6572842885    2.2240996114   -0.4237345917
N       -0.9782227839    1.4327162942    0.1216100177
C        1.0831905008    0.1365847924   -0.1546434737
C       -0.1288416436    0.4717129467    0.7496830693
C       -0.9452850926   -0.7796100883    1.1555932598
N       -1.8993596547   -0.7685521248    1.9586207356
C        1.2011573035   -1.1752642697   -0.8889495952
C        0.8904646396   -0.1464422668   -1.6160816453
H        1.9893476048    0.6501032931    0.1764311979
H        0.2432286049    0.9233047666    1.6756411709
H       -0.6198457071   -1.7312513181    0.7073395805
H        1.4295655311   -2.2263215261   -0.8032631802
H        0.6540129029    0.2950677885   -2.5712894019
13   
Iteration 10 Energy -340.94462523
C       -1.6467161796    2.2540782227   -0.4076814382
N       -0.9730494543    1.4500383170    0.1256185217
C        1.0843094354    0.1478798563   -0.1575053470
C       -0.1326709570    0.4748518766    0.7436377330
C       -0.9591333515   -0.7773394683    1.1268120799
N       -1.9126420662   -0.7709342192    1.9303934994
C        1.2099325899   -1.1570341608   -0.9032845471
C        0.9034543954   -0.1214457966   -1.6226517925
H        1.9876033207    0.6585307022    0.1853441602
H        0.2365381656    0.9101735479    1.6785191806
H       -0.6433458957   -1.7238082766    0.6612731269
H        1.4403770898   -2.2084692947   -0.8253947965
H        0.6738158224    0.3293138605   -2.5752729113
13   
Iteration 11 Energy -340.94468030
C       -1.6307034796    2.2402812662   -0.4326983145
N       -0.9605573258    1.4432472377    0.1154907043
C        1.0946448026    0.1363681138   -0.1557315235
C       -0.1203543668    0.4741305501    0.7440142202
C       -0.9485935699   -0.7721387549    1.1414516744
N       -1.8935326677   -0.7556100604    1.9549221302
C        1.2243839341   -1.1787753110   -0.8829157278
C        0.9088196822   -0.1552601657   -1.6155941975
H        1.9965922539    0.6570300463    0.1751989847
H        0.2505713332    0.9195403547    1.6733946423
H       -0.6435053499   -1.7229531339    0.6775116298
H        1.4616866908   -2.2277191975   -0.7913350364
H        0.6728912916    0.2817534298   -2.5730559739
13   
Iteration 12 Energy -340.94472826
C       -1.6018152961    2.2276680975   -0.4649855963
N       -0.9313778333    1.4364704583    0.0911692154
C        1.1219122205    0.1189910342   -0.1542558102
C       -0.0948078660    0.4748468368    0.7358027909
C       -0.9249128140   -0.7658093905    1.1455440882
N       -1.8638295548   -0.7441011036    1.9656470553
C        1.2524679633   -1.2125890619   -0.8503511733
C        0.9396980433   -0.2063601572   -1.6079266121
H        2.0230885845    0.6470801857    0.1670809693
H        0.2734330626    0.9328301294    1.6601974907
H       -0.6256959541   -1.7187164766    0.6820388140
H        1.4891608420   -2.2590828035   -0.7329030751
H        0.7068513190    0.2067823688   -2.5767336736
13   
Iteration 13 Energy -340.94464281
C       -1.5945067727    2.1951598202   -0.4964504444
N       -0.9315541720    1.4054671225    0.0705578045
C        1.1249127599    0.0876313770   -0.1375732739
C       -0.1036337742    0.4492861659    0.7334382343
C       -0.9373721032   -0.7894712045    1.1426770759
N       -1.8967154156   -0.7626206222    1.9387044687
C        1.2535925201   -1.2447973135   -0.8313829291
C        0.9623557455   -0.2362666371   -1.5943988559
H        2.0255597554    0.6082433513    0.1977411042
H        0.2514327633    0.9143297267    1.6594537149
H       -0.6195984134   -1.7476664089    0.7032311110
H        1.4768761457   -2.2934109270   -0.7086547359
H        0.7480395955    0.1780024803   -2.5669600114
13   
Iteration 14 Energy -340.94467818
C       -1.5748873114    2.1855190241   -0.5154660213
N       -0.9159815952    1.3975669675    0.0587532062
C        1.1389006879    0.0752682182   -0.1369300540
C       -0.0923903199    0.4423013361    0.7286464417
C       -0.9324277687   -0.7910456825    1.1417322784
N       -1.8914783731   -0.7526574512    1.9375939578
C        1.2743693511   -1.2616656373   -0.8220534854
C        0.9825267685   -0.2583284941   -1.5915132747
H        2.0372250129    0.5994412933    0.1984212497
H        0.2615428684    0.9105562470    1.6534523107
H       -0.6218267277   -1.7533230418    0.7060693028
H        1.5005679683   -2.3090485885   -0.6926029811
H        0.7705201134    0.1502556364   -2.5669908394
13   
Iteration 15 Energy -340.94474467
C       -1.5563724451    2.1790110461   -0.5340800475
N       -0.9007723175    1.3943011385    0.0483258733
C        1.1520425921    0.0685907910   -0.1368176087
C       -0.0806592796    0.4402471113    0.7245989231
C       -0.9249715947   -0.7888729253    1.1408576429
N       -1.8770588668   -0.7450692084    1.9449026865
C        1.2956652902   -1.2736171329   -0.8101105506
C        0.9991767146   -0.2785857002   -1.5886542913
H        2.0474472282    0.6002140460    0.1945397183
H        0.2722580989    0.9114383839    1.6482938910
H       -0.6251091467   -1.7522687068    0.7001941962
H        1.5283841895   -2.3186001521   -0.6727641363
H        0.7868047517    0.1205144089   -2.5680174201
13   
Iteration 16 Energy -340.94484302
C       -1.5355746815    2.1700407386   -0.5594636015
N       -0.8823143722    1.3897021535    0.0314304127
C        1.1693974342    0.0599870978   -0.1373601993
C       -0.0658865448    0.4388511682    0.7170237950
C       -0.9132150561   -0.7869958395    1.1356056204
N       -1.8543712998   -0.7415520198    1.9522902088
C        1.3212188719   -1.2910683566   -0.7908625135
C        1.0208137376   -0.3089853135   -1.5843388879
H        2.0614459907    0.6010628933    0.1876965893
H        0.2839120903    0.9151357195    1.6392497317
H       -0.6262912309   -1.7491313952    0.6835637296
H        1.5605288068   -2.3325311333   -0.6388149016
H        0.8087812394    0.0741702461   -2.5701595851
13   
Iteration 17 Energy -340.94494038
C       -1.5023989152    2.1547810169   -0.6071538557
N       -0.8485686101    1.3833333612   -0.0052179742
C        1.2046413405    0.0491686344   -0.1400733183
C       -0.0360552739    0.4427991387    0.6993262784
C       -0.8843808484   -0.7792612843    1.1250921570
N       -1.8165013338   -0.7324287719    1.9518630975
C        1.3635246676   -1.3182930515   -0.7566457968
C        1.0648645885   -0.3585565708   -1.5777279513
H        2.0933874634    0.6007729765    0.1762537557
H        0.3067048519    0.9324052514    1.6171462428
H       -0.6062581645   -1.7404209611    0.6652404353
H        1.6054111317   -2.3544277782   -0.5754495021
H        0.8576863098   -0.0045620492   -2.5754182513
13   
Iteration 18 Energy -340.94493675
C       -1.4209473587    2.1352889531   -0.7058788114
N       -0.7629747788    1.3819696455   -0.0856826853
C        1.2918036977    0.0373876826   -0.1541750165
C        0.0435196941    0.4651363501    0.6562553131
C       -0.8058136735   -0.7468642113    1.1056670987
N       -1.7374386107   -0.6891255066    1.9319713857
C        1.4525516762   -1.3605147959   -0.6973120856
C        1.1653613506   -0.4441348303   -1.5703546298
H        2.1790034657    0.6008288172    0.1450185763
H        0.3760972023    0.9850347494    1.5610073984
H       -0.5276833981   -1.7131250632    0.6563059247
H        1.6879312246   -2.3861653352   -0.4581724592
H        0.9693261012   -0.1462609270   -2.5883273130
13   
Iteration 19 Energy -340.94492500
C       -1.4521559332    2.1361056818   -0.6783215068
N       -0.7969275277    1.3785489049   -0.0604571851
C        1.2586993041    0.0404756659   -0.1453772608
C        0.0112487346    0.4563630476    0.6726619733
C       -0.8378199525   -0.7582658908    1.1170025497
N       -1.7745402495   -0.7005261942    1.9377300493
C        1.4186632323   -1.3469009998   -0.7148290734
C        1.1297678660   -0.4143805411   -1.5699872719
H        2.1463682218    0.5990258742    0.1617387720
H        0.3454239506    0.9686322841    1.5811154045
H       -0.5551845116   -1.7254974121    0.6727269647
H        1.6547023249   -2.3768493806   -0.4957917806
H        0.9317400928   -0.0957000656   -2.5812553692
13   
Iteration 20 Energy -340.94495333
C       -1.4568171626    2.1274932645   -0.6820532317
N       -0.8057552679    1.3710000475   -0.0586114538
C        1.2501989550    0.0397341366   -0.1431246614
C        0.0012138748    0.4496577415    0.6765274522
C       -0.8520862999   -0.7611344383    1.1258791341
N       -1.7900599525   -0.6899092811    1.9442948650
C        1.4161966995   -1.3436092393   -0.7213584328
C        1.1238735078   -0.4065420806   -1.5701874992
H        2.1358805439    0.5994980712    0.1674585556
H        0.3356487562    0.9617302438    1.5848590751
H       -0.5737936251   -1.7340684011    0.6918056337
H        1.6563408997   -2.3741377901   -0.5093540039
H        0.9251259763   -0.0803896590   -2.5789764450
13   
Iteration 21 Energy -340.94513210
C       -1.5207218884    2.0439267356   -0.6467162619
N       -0.9077746434    1.2671348251   -0.0097086585
C        1.1406504302   -0.0800053413   -0.0472957226
C       -0.1324475845    0.3264134703    0.7359146237
C       -1.0083470449   -0.8844699563    1.1372755782
N       -1.9472228733   -0.8241623513    1.9553311693
C        1.3308614577   -1.4535741753   -0.6407644590
C        1.0603375848   -0.5047175393   -1.4843844591
H        2.0129775962    0.4839848732    0.2922001667
H        0.1741136312    0.8211664260    1.6636933202
H       -0.7461207678   -1.8489904039    0.6760071381
H        1.5718210119   -2.4858596141   -0.4343459479
H        0.8917821060   -0.1573171368   -2.4918107735
13   
Iteration 22 Energy -340.94531020
C       -1.6631495759    1.8929071186   -0.6847039269
N       -1.0672045832    1.1234997843   -0.0229067377
C        0.9876498747   -0.2197423806    0.0440903197
C       -0.3226480694    0.1894130692    0.7618200003
C       -1.2092034736   -1.0275505073    1.1152821126
N       -2.1599600765   -0.9893882352    1.9209687167
C        1.1980841907   -1.5955522588   -0.5370905077
C        0.9789467524   -0.6466655842   -1.3951582039
H        1.8452765304    0.3364558218    0.4306735056
H       -0.0639236273    0.6886161218    1.7014344464
H       -0.9438205427   -1.9753652500    0.6214217256
H        1.4204442448   -2.6290001737   -0.3186350498
H        0.8671161421   -0.3059092183   -2.4124786031
13   
Iteration 23 Energy -340.94530340
C       -1.6623890648    1.8746146855   -0.7075514548
N       -1.0704904295    1.1139956493   -0.0322101137
C        0.9847515872   -0.2190433277    0.0493771343
C       -0.3284285948    0.1876393305    0.7632274963
C       -1.2185897780   -1.0245206650    1.1264899190
N       -2.1737324053   -0.9709760171    1.9264146848
C        1.1973898797   -1.5937973020   -0.5328116001
C        0.9787734180   -0.6440845501   -1.3899543156
H        1.8412755105    0.3372841261    0.4383577761
H       -0.0725903298    0.6928848860    1.7001056807
H       -0.9533804470   -1.9803178970    0.6483883784
H        1.4197110391   -2.6272471987   -0.3156572277
H        0.8678687547   -0.3009789950   -2.4065747938
13   
Iteration 24 Energy -340.94531904
C       -1.6613489435    1.8855698858   -0.6927833289
N       -1.0672255105    1.1188022124   -0.0263930493
C        0.9873703451   -0.2197705958    0.0453446426
C       -0.3241855329    0.1872802209    0.7622199043
C       -1.2134875734   -1.0269594414    1.1199343200
N       -2.1655097185   -0.9801559536    1.9238564168
C        1.1996752175   -1.5947886880   -0.5367194901
C        0.9798638093   -0.6454337374   -1.3939823707
H        1.8442390258    0.3370027991    0.4328202517
H       -0.0661488359    0.6881436357    1.7009545012
H       -0.9498842192   -1.9786285605    0.6327459983
H        1.4229069781   -2.6280898391   -0.3192097115
H        0.8680339092   -0.3035900862   -2.4109440935
13   
Iteration 25 Energy -340.94534341
C       -1.6600509183    1.8529538631   -0.7344827095
N       -1.0723285005    1.1008359459   -0.0460703341
C        0.9821241122   -0.2321404669    0.0616099617
C       -0.3352045559    0.1823828048    0.7633016871
C       -1.2284615645   -1.0261326624    1.1306619354
N       -2.1834373301   -0.9669431806    1.9302390970
C        1.1943609330   -1.6115897854   -0.5095119187
C        0.9838507225   -0.6671976355   -1.3745216549
H        1.8376928935    0.3240359097    0.4528366283
H       -0.0855411251    0.6964087103    1.6970108139
H       -0.9670563971   -1.9839778089    0.6546180337
H        1.4117763125   -2.6441035527   -0.2828775938
H        0.8797066080   -0.3298333834   -2.3937488472
13   
Iteration 26 Energy -340.94541282
C       -1.6477230338    1.8165912551   -0.7974524332
N       -1.0658004740    1.0843351910   -0.0830971037
C        0.9862051682   -0.2511048573    0.0835569531
C       -0.3382115327    0.1867191350    0.7578461405
C       -1.2367845034   -1.0121598582    1.1420056967
N       -2.1894887551   -0.9390245691    1.9429011989
C        1.1927080144   -1.6434372734   -0.4581832317
C        1.0044560206   -0.7134636987   -1.3436498360
H        1.8414465497    0.3027525832    0.4785222515
H       -0.0987629416    0.7242672587    1.6808419976
H       -0.9827775830   -1.9756655344    0.6732295024
H        1.3945373759   -2.6736518792   -0.2073135900
H        0.9170614428   -0.3938179389   -2.3701085940
13   
Iteration 27 Energy -340.94554017
C       -1.6042778771    1.7789102439   -0.8854325257
N       -1.0302712600    1.0717383701   -0.1399995942
C        1.0131556558   -0.2704522176    0.1073785484
C       -0.3179477289    0.2033093716    0.7436775251
C       -1.2271835100   -0.9778293947    1.1548068988
N       -2.1710357957   -0.8813917596    1.9634676597
C        1.2082686738   -1.6819927081   -0.3871683221
C        1.0520042538   -0.7770899251   -1.3042530706
H        1.8690254281    0.2811146160    0.5039265245
H       -0.0889071086    0.7736619055    1.6493486945
H       -0.9905691207   -1.9496745738    0.6941618467
H        1.3864216089   -2.7069562439   -0.0991316277
H        0.9876690369   -0.4885166756   -2.3415455720
13   
Iteration 28 Energy -340.94577591
C       -1.5158760169    1.7379309914   -1.0013288332
N       -0.9544846371    1.0629879366   -0.2173089300
C        1.0721134257   -0.2889783209    0.1316978970
C       -0.2639860750    0.2326071857    0.7189907748
C       -1.1907145619   -0.9205537999    1.1660220791
N       -2.1150675360   -0.7905557771    1.9921223781
C        1.2502171839   -1.7243237141   -0.2971727616
C        1.1332091611   -0.8570224760   -1.2554995148
H        1.9294280371    0.2614184675    0.5264451964
H       -0.0443688163    0.8438360735    1.5998535837
H       -0.9870794461   -1.9023133983    0.7106360472
H        1.3980151622   -2.7391311253    0.0402884620
H        1.0962144545   -0.6130674470   -2.3055004493
13   
Iteration 29 Energy -340.94616003
C       -1.3788903813    1.6907764435   -1.1392929504
N       -0.8350174270    1.0557733366   -0.3106955006
C        1.1665148304   -0.3046353805    0.1547111663
C       -0.1716944459    0.2717919594    0.6838272055
C       -1.1213480489   -0.8436167722    1.1723711633
N       -2.0127211563   -0.6732048530    2.0268020904
C        1.3232408747   -1.7646535629   -0.1925554737
C        1.2485995291   -0.9477457887   -1.1982371228
H        2.0257881928    0.2471360422    0.5429595601
H        0.0403510185    0.9285800288    1.5330347826
H       -0.9673589728   -1.8343373604    0.7168525769
H        1.4370704462   -2.7627582508    0.2032928671
H        1.2402526363   -0.7604719274   -2.2604685607
13   
Iteration 30 Energy -340.94661139
C       -1.2185619710    1.6384997331   -1.2767430879
N       -0.6952028668    1.0450679047   -0.4051647899
C        1.2778753741   -0.3170159552    0.1705826690
C       -0.0598515456    0.3083900498    0.6425808031
C       -1.0335654013   -0.7659578919    1.1699282963
N       -1.8879504251   -0.5547972104    2.0527070615
C        1.4145771241   -1.7963222737   -0.0944000541
C        1.3755263460   -1.0339049376   -1.1438705240
H        2.1389568934    0.2395911523    0.5476780733
H        0.1467370888    1.0067409818    1.4591859550
H       -0.9331047824   -1.7637313526    0.7149297656
H        1.4991484893   -2.7733797278    0.3572767409
H        1.3909319199   -0.9047626888   -2.2146890244
13   
Iteration 31 Energy -340.94707816
C       -1.0490397457    1.5820458772   -1.4102601781
N       -0.5468436203    1.0285742970   -0.5007272911
C        1.3957185667   -0.3308121910    0.1793309943
C        0.0597977476    0.3375969015    0.5943404057
C       -0.9382101593   -0.6960380467    1.1527808154
N       -1.7553972415   -0.4486995628    2.0611930540
C        1.5141678760   -1.8241809029   -0.0032301719
C        1.5057398166   -1.1192200649   -1.0927280599
H        2.2583464157    0.2326618153    0.5423692286
H        0.2612210744    1.0725444135    1.3793837205
H       -0.8916568362   -1.6967427013    0.6956722709
H        1.5734890133   -2.7763937880    0.5021976273
H        1.5418309416   -1.0489476777   -2.1685457354
13   
Iteration 32 Energy -340.94753369
C       -0.8716603378    1.5240366793   -1.5381225816
N       -0.3908743266    1.0087760099   -0.5951293311
C        1.5196345433   -0.3439843444    0.1842147372
C        0.1868441133    0.3624488485    0.5422674486
C       -0.8349873135   -0.6309611444    1.1264735274
N       -1.6148196763   -0.3521820762    2.0586124446
C        1.6204647086   -1.8465187984    0.0850013126
C        1.6392547378   -1.2022074254   -1.0412621235
H        2.3840042750    0.2273280078    0.5305168209
H        0.3837718561    1.1301728640    1.2963933046
H       -0.8415812423   -1.6309476363    0.6656803944
H        1.6570033007   -2.7702054008    0.6427228302
H        1.6937974394   -1.1919460775   -2.1185938107
13   
Iteration 33 Energy -340.94796405
C       -0.6833152672    1.4640790693   -1.6593296908
N       -0.2229608301    0.9880839510   -0.6859381876
C        1.6553301705   -0.3539273656    0.1869366689
C        0.3278896127    0.3875029358    0.4894305857
C       -0.7158775120   -0.5651832873    1.0989314172
N       -1.4552164985   -0.2581215732    2.0551480897
C        1.7369807983   -1.8608595358    0.1731591360
C        1.7792384121   -1.2812256532   -0.9870380376
H        2.5227459162    0.2249137247    0.5125725955
H        0.5228976805    1.1859361319    1.2114268516
H       -0.7762856286   -1.5616724290    0.6347287628
H        1.7521498984   -2.7518937208    0.7824748597
H        1.8485287027   -1.3328624145   -2.0623475947
13   
Iteration 34 Energy -340.94836038
C       -0.4844662864    1.4028798875   -1.7774312724
N       -0.0422877679    0.9671473411   -0.7771047480
C        1.8040564198   -0.3607254438    0.1830420935
C        0.4844100302    0.4135677286    0.4320409214
C       -0.5801469138   -0.4966204590    1.0672242975
N       -1.2755598030   -0.1627478559    2.0472567147
C        1.8647557159   -1.8669205205    0.2561383673
C        1.9255404882   -1.3554285384   -0.9348178417
H        2.6763431450    0.2242992169    0.4837078220
H        0.6807426043    1.2409591560    1.1202439795
H       -0.6969125835   -1.4867842423    0.6004946289
H        1.8603659364   -2.7212114590    0.9160742247
H        2.0044528440   -1.4697085779   -2.0046236163
13   
Iteration 35 Energy -340.94870686
C       -0.2766241757    1.3437640054   -1.8918009088
N        0.1467032885    0.9466969657   -0.8674989860
C        1.9594079188   -0.3659063304    0.1743442304
C        0.6488604944    0.4380877069    0.3715741226
C       -0.4375147388   -0.4289547812    1.0279448729
N       -1.0919750328   -0.0715537463    2.0278829896
C        1.9996694186   -1.8661593366    0.3327280894
C        2.0743039060   -1.4237718178   -0.8847799909
H        2.8375523211    0.2240296162    0.4472169014
H        0.8479274141    1.2910699312    1.0269672933
H       -0.6094491840   -1.4096097109    0.5584217525
H        1.9785765824   -2.6809553076    1.0405345843
H        2.1590281206   -1.5993493202   -1.9458226350
13   
Iteration 36 Energy -340.94898200
C       -0.0695544028    1.2899668659   -1.9903678803
N        0.3329026774    0.9260623687   -0.9455441520
C        2.1117114420   -0.3714429317    0.1697290258
C        0.8098939540    0.4565106779    0.3187009515
C       -0.2975186907   -0.3715615902    0.9891267630
N       -0.9185783304    0.0033551398    2.0040506666
C        2.1346200187   -1.8609305153    0.4099406217
C        2.2186596410   -1.4867960607   -0.8296620131
H        2.9953886934    0.2231834635    0.4132727440
H        1.0112269474    1.3300944883    0.9456680156
H       -0.5165350514   -1.3412871464    0.5166729201
H        2.1007394739   -2.6347621389    1.1617598831
H        2.3063845427   -1.7212097521   -1.8790524882
13   
Iteration 37 Energy -340.94919792
C        0.1366533077    1.2408946723   -2.0784126821
N        0.5191761600    0.9061423161   -1.0165015320
C        2.2649089919   -0.3764747334    0.1648099801
C        0.9722093332    0.4718109756    0.2690300418
C       -0.1547266958   -0.3202924011    0.9497280521
N       -0.7480262112    0.0709956096    1.9751512229
C        2.2719777560   -1.8506611408    0.4854353032
C        2.3606239302   -1.5455300947   -0.7726091684
H        3.1546832926    0.2214907352    0.3761724360
H        1.1762833797    1.3627411684    0.8701947966
H       -0.4142913830   -1.2793498368    0.4761630162
H        2.2287761101   -2.5815954358    1.2784174965
H        2.4476074858   -1.8382132074   -1.8073210358
13   
Iteration 38 Energy -340.94936042
C        0.3452496306    1.1948121205   -2.1597510414
N        0.7086917375    0.8852826876   -1.0835817487
C        2.4212758280   -0.3834759211    0.1587322694
C        1.1379149218    0.4821886187    0.2202751245
C       -0.0077906740   -0.2771110420    0.9066835018
N       -0.5822583686    0.1295072100    1.9368711107
C        2.4138857978   -1.8375643550    0.5598602043
C        2.5033293106   -1.6031662000   -0.7132335569
H        3.3175317978    0.2162272046    0.3353330572
H        1.3444119946    1.3876187230    0.7985723494
H       -0.2992236681   -1.2272377529    0.4337923755
H        2.3637952452   -2.5224324669    1.3924689564
H        2.5863712274   -1.9538535226   -1.7300718995
13   
Iteration 39 Energy -340.94935887
C        0.4020241850    1.1537629212   -2.1831790948
N        0.7431320333    0.8640862017   -1.0944156352
C        2.4429704351   -0.3858822978    0.1682102271
C        1.1581979407    0.4772925373    0.2183832497
C       -0.0008974734   -0.2608226330    0.9080097893
N       -0.6066516154    0.1911048994    1.9012943508
C        2.4410397157   -1.8345963946    0.5846724843
C        2.5237392590   -1.6146251760   -0.6913144066
H        3.3394429391    0.2186098452    0.3291379553
H        1.3626166116    1.3886208096    0.7876700181
H       -0.2707914016   -1.2383928731    0.4806545484
H        2.3988398980   -2.5114121789    1.4234647189
H        2.6051508252   -1.9743355597   -1.7050596803
13   
Iteration 40 Energy -340.94942639
C        0.3622795251    1.1768491359   -2.1671625510
N        0.7181974416    0.8734872207   -1.0868532027
C        2.4274094274   -0.3861569775    0.1590687281
C        1.1418565310    0.4764691177    0.2201790294
C       -0.0123194283   -0.2710931309    0.9074970953