13   
step_02 start
C       -2.4535291190    1.3407802062    1.2738183757
N       -2.7647369542    2.4087026230    1.6546143565
C        1.2911393542    0.1481204875   -0.5256503082
C        0.0263424311    0.5742807374    0.0881497355
C       -1.0665029268   -0.2561405503    0.3338457530
N       -2.2309082859    0.0962592622    0.8889359841
C        1.8130723436   -1.2836401035   -0.3725554336
C        1.3421334715   -1.0003266793   -1.5381890787
H        2.0237784391    0.9495693502   -0.6271497044
H       -0.0581637589    1.6223768976    0.3709494871
H       -1.0082151266   -1.3076207548    0.0619072605
H        2.2393794035   -1.9677741079    0.3448713979
H        1.0699877367   -1.2638981632   -2.5485849183
13   
step_02 end
C       -3.8429267359    0.6632029354    1.1996566241
N       -4.4616507573    1.6270170459    1.4411975762
C        0.3413817442    0.2886506071    0.8666115975
C       -1.0060266021    0.4395442127    0.9794058135
C       -1.9775703106   -0.6169561279    0.8153343644
N       -3.2686072540   -0.5095761121    0.9167810306
C        2.3947337199   -0.9847552517    0.4753067817
C        1.0727241063   -0.9331925253    0.5655099459
H        0.9599167060    1.1706290744    1.0151270412
H       -1.3984396747    1.4266602971    1.2109647361
H       -1.6282444659   -1.6213327717    0.5815081698
H        3.1531648278   -1.7291236411    0.2731405411
H        0.5100152107   -1.8583029781    0.4046104358
