13   
Iteration 1 Energy -340.82899655
C       -3.0973816897   -0.1202803160   -1.0525393101
N       -2.3787545158   -0.0114057255   -0.1226730550
C        0.9453347913   -0.3309595659   -0.1708638021
C        0.1357015390    0.4341145332    0.8114595933
C       -0.5218279920   -0.2281978175    1.9704657562
N        0.5219376157    0.3445944655    2.3368573087
C        0.5943674030   -0.2618125831   -1.6411433066
C        1.6528211742    0.3963812021   -1.3046116928
H        1.3730438790   -1.2533665198    0.2339311261
H       -0.2248243635    1.4115496325    0.5038732308
H       -1.3364905598   -0.8431072723    2.3341919748
H       -0.1451486216   -0.5852406058   -2.3588534075
H        2.4812213407    1.0477305722   -1.5400944155
13   
Iteration 30 Energy -340.82899652
C       -3.1065231413   -0.1207994058   -1.0471045411
N       -2.3791950936   -0.0076981170   -0.1245340478
C        0.9471418616   -0.3305090828   -0.1704561981
C        0.1363770297    0.4342875289    0.8112350354
C       -0.5226355190   -0.2290547034    1.9687846791
N        0.5204644809    0.3438708796    2.3369024766
C        0.5964329366   -0.2633117927   -1.6409173180
C        1.6538674641    0.3966994440   -1.3046659306
H        1.3760101141   -1.2519886200    0.2352547286
H       -0.2235759596    1.4120333520    0.5040719925
H       -1.3374520095   -0.8446081800    2.3311248021
H       -0.1427509541   -0.5872279651   -2.3587348793
H        2.4818387901    1.0483066623   -1.5409607996
13   
Iteration 29 Energy -340.82899603
C       -3.1077732594   -0.1282959767   -1.0459229362
N       -2.3796010114   -0.0086975792   -0.1248191838
C        0.9466675200   -0.3308139155   -0.1709660522
C        0.1371249024    0.4345621226    0.8109935554
C       -0.5228092521   -0.2274694557    1.9688905439
N        0.5222242277    0.3417759733    2.3370659144
C        0.5961779052   -0.2606716580   -1.6413024925
C        1.6551795235    0.3963423425   -1.3042640605
H        1.3735786480   -1.2536528419    0.2336782506
H       -0.2220448928    1.4126883398    0.5039721080
H       -1.3395256394   -0.8402366435    2.3317201796
H       -0.1435053887   -0.5823966278   -2.3595831489
H        2.4843067173    1.0468659199   -1.5394626778
13   
Iteration 28 Energy -340.82899351
C       -3.1048853890   -0.1476736914   -1.0458131636
N       -2.3800427785   -0.0161381241   -0.1237869348
C        0.9413468756   -0.3314257090   -0.1731830879
C        0.1369425728    0.4367118853    0.8113015425
C       -0.5220643053   -0.2231671864    1.9707505705
N        0.5252490550    0.3447164376    2.3349320841
C        0.5945515714   -0.2526218135   -1.6438312717
C        1.6582358618    0.3944266664   -1.3020497311
H        1.3602500135   -1.2592679116    0.2284065416
H       -0.2185086979    1.4164809387    0.5051581563
H       -1.3386442034   -0.8345418305    2.3361666138
H       -0.1465526501   -0.5651775075   -2.3647399326
H        2.4941220741    1.0376778459   -1.5333113871
13   
Iteration 27 Energy -340.82898421
C       -3.1020905815   -0.1718321893   -1.0449894072
N       -2.3824505042   -0.0301652416   -0.1203665070
C        0.9344138131   -0.3331704184   -0.1768256799
C        0.1346784752    0.4377280379    0.8087002856
C       -0.5198219128   -0.2160815171    1.9741970751
N        0.5312331455    0.3477769777    2.3333357356
C        0.5935662864   -0.2400448036   -1.6478545359
C        1.6639882597    0.3916374546   -1.2986595316
H        1.3415234812   -1.2682031246    0.2200613005
H       -0.2173552471    1.4190435358    0.5030921367
H       -1.3375329697   -0.8228215755    2.3449011847
H       -0.1488557407   -0.5397102449   -2.3729092487
H        2.5087034951    1.0258431091   -1.5226828078
13   
Iteration 26 Energy -340.82896405
C       -3.0976408939   -0.1914889161   -1.0434431520
N       -2.3832263559   -0.0452757494   -0.1156103942
C        0.9255341050   -0.3354581584   -0.1803010915
C        0.1345309526    0.4405699733    0.8082330590
C       -0.5170572929   -0.2097888149    1.9767287277
N        0.5380158226    0.3528992337    2.3271962660
C        0.5923923096   -0.2275743240   -1.6515067663
C        1.6696090759    0.3877638764   -1.2939995954
H        1.3209125346   -1.2773150580    0.2123188955
H       -0.2223526106    1.4188002451    0.4983684080
H       -1.3342089765   -0.8125902011    2.3548469743
H       -0.1487313054   -0.5146853761   -2.3829850514
H        2.5222226350    1.0141432697   -1.5098462798
13   
Iteration 25 Energy -340.82893739
C       -3.0892069348   -0.2128578229   -1.0432474731
N       -2.3767253019   -0.0618260391   -0.1145593570
C        0.9146963699   -0.3375006466   -0.1854879789
C        0.1246558181    0.4392755525    0.8033736904
C       -0.5126930948   -0.2022494578    1.9845380945
N        0.5422673269    0.3653869281    2.3250386986
C        0.5913484611   -0.2143546294   -1.6578173509
C        1.6739660638    0.3849010531   -1.2892785732
H        1.2955432093   -1.2876543195    0.2013640774
H       -0.2257879590    1.4204240714    0.4959352569
H       -1.3257454654   -0.8060543449    2.3703071502
H       -0.1512804685   -0.4847109054   -2.3941839458
H        2.5389619752    0.9972205606   -1.4959822890
13   
Iteration 24 Energy -340.82884096
C       -3.0768511143   -0.2367777146   -1.0366273676
N       -2.3524995309   -0.0847858364   -0.1170324865
C        0.8944452459   -0.3454424342   -0.1939502596
C        0.1116748499    0.4362269994    0.7961662941
C       -0.5045237167   -0.1915374044    1.9962941507
N        0.5518998955    0.3866961586    2.3133911494
C        0.5894204921   -0.1927462643   -1.6662607551
C        1.6803822545    0.3784953805   -1.2782236102
H        1.2541577888   -1.3074088654    0.1836584475
H       -0.2487953689    1.4114882065    0.4808221812
H       -1.3095779136   -0.7925548240    2.4032099243
H       -0.1487949044   -0.4388889739   -2.4154339280
H        2.5590620223    0.9772355724   -1.4660137401
13   
Iteration 23 Energy -340.82863397
C       -3.0629606046   -0.2480227882   -1.0258493958
N       -2.3145209669   -0.0936020505   -0.1258662939
C        0.8736268638   -0.3522627639   -0.2020723656
C        0.0907343697    0.4303520642    0.7871864829
C       -0.4963187071   -0.1844625338    2.0089445472
N        0.5579305965    0.4082409039    2.3027602414
C        0.5886993766   -0.1809246957   -1.6758253946
C        1.6803651158    0.3752324827   -1.2678180380
H        1.2184369070   -1.3218830450    0.1698581710
H       -0.2723948880    1.4027409368    0.4699461597
H       -1.2903639643   -0.7883492256    2.4339104264
H       -0.1422235731   -0.4112735874   -2.4369220307
H        2.5689894747    0.9642143025   -1.4382525099
13   
Iteration 22 Energy -340.82837613
C       -3.0525352298   -0.2495983700   -1.0132551020
N       -2.2818884146   -0.0933863849   -0.1321602129
C        0.8561218208   -0.3574494260   -0.2085335544
C        0.0722981283    0.4256092343    0.7796162791
C       -0.4888028541   -0.1803946572    2.0165049637
N        0.5639025920    0.4204601130    2.2968356122
C        0.5895042236   -0.1776301379   -1.6840947917
C        1.6779112326    0.3729373303   -1.2599435182
H        1.1936575500   -1.3299073515    0.1625762843
H       -0.2939263665    1.3990470806    0.4631014667
H       -1.2751549761   -0.7871980998    2.4517787369
H       -0.1315082415   -0.4027219579   -2.4562288116
H        2.5704205355    0.9602326270   -1.4161973522
13   
Iteration 21 Energy -340.82820994
C       -3.0475246434   -0.2487896131   -1.0064930183
N       -2.2668587656   -0.0914836269   -0.1348179674
C        0.8476936433   -0.3590591331   -0.2117296956
C        0.0620791852    0.4242191454    0.7751422842
C       -0.4846102461   -0.1777718870    2.0192630638
N        0.5665887092    0.4260157048    2.2963244601
C        0.5901594047   -0.1773987203   -1.6885365509
C        1.6762077100    0.3724908906   -1.2568169298
H        1.1827628769   -1.3321476930    0.1601421022
H       -0.3017123600    1.3927195450    0.4620033884
H       -1.2687023526   -0.7867690285    2.4574681039
H       -0.1252666832   -0.4019086442   -2.4655318954
H        2.5691835216    0.9598830605   -1.4064173452
13   
Iteration 20 Energy -340.82801605
C       -3.0425447749   -0.2482743068   -0.9993646247
N       -2.2512530669   -0.0899015846   -0.1367854719
C        0.8395302470   -0.3614135502   -0.2151266000
C        0.0501711034    0.4198046077    0.7702057807
C       -0.4802551915   -0.1757707651    2.0226582387
N        0.5701683658    0.4293917509    2.2982789035
C        0.5916644945   -0.1781423784   -1.6933527651
C        1.6742524243    0.3717855669   -1.2536491955
H        1.1725046458   -1.3348800693    0.1572135030
H       -0.3127776269    1.3972023747    0.4599615660
H       -1.2615477488   -0.7867591272    2.4621051992
H       -0.1191374049   -0.4018545567   -2.4753210799
H        2.5692245331    0.9588120381   -1.3968234539
13   
Iteration 19 Energy -340.82778830
C       -3.0378888844   -0.2465466527   -0.9922705145
N       -2.2378344758   -0.0873660582   -0.1381037134
C        0.8321172443   -0.3628545625   -0.2183696315
C        0.0372679388    0.4167283019    0.7632193675
C       -0.4747001580   -0.1724034334    2.0245728956
N        0.5738966099    0.4323606736    2.3043417255
C        0.5929169853   -0.1786847806   -1.6978608718
C        1.6727599271    0.3714828733   -1.2515708947
H        1.1635636312   -1.3362531986    0.1553729969
H       -0.3204837580    1.3923209104    0.4590504316
H       -1.2561870292   -0.7849753819    2.4635401795
H       -0.1128158588   -0.4036391642   -2.4836494356
H        2.5673878278    0.9598304729   -1.3882725351
13   
Iteration 18 Energy -340.82754391
C       -3.0343129547   -0.2462725293   -0.9866575784
N       -2.2273528874   -0.0861517096   -0.1387371612
C        0.8265473704   -0.3637343446   -0.2207937853
C        0.0241909916    0.4127864107    0.7559977820
C       -0.4697896916   -0.1694949824    2.0259096135
N        0.5769356408    0.4341555862    2.3120274667
C        0.5943253886   -0.1800113960   -1.7016408307
C        1.6710349875    0.3714759534   -1.2498711245
H        1.1562526309   -1.3370689341    0.1542221110
H       -0.3246366301    1.3956067453    0.4590808364
H       -1.2509242038   -0.7852384085    2.4616225486
H       -0.1092156407   -0.4052930922   -2.4893932448
H        2.5669449986    0.9592407010   -1.3817666334
13   
Iteration 17 Energy -340.82735798
C       -3.0319376948   -0.2453861029   -0.9827187091
N       -2.2206680132   -0.0849050025   -0.1388114146
C        0.8227266106   -0.3643942401   -0.2223113552
C        0.0154562866    0.4106509734    0.7504391678
C       -0.4657144662   -0.1673401929    2.0260070424
N        0.5794489977    0.4348954261    2.3185700006
C        0.5951569716   -0.1807838723   -1.7038893690
C        1.6700932170    0.3712364859   -1.2487831566
H        1.1514208520   -1.3374829720    0.1539421655
H       -0.3280169112    1.3958646266    0.4584278774
H       -1.2473664332   -0.7849143849    2.4591143276
H       -0.1065683991   -0.4071554668   -2.4928591686
H        2.5659689822    0.9597147222   -1.3771274081
13   
Iteration 16 Energy -340.82722311
C       -3.0303095473   -0.2444908762   -0.9799033901
N       -2.2160376200   -0.0839077685   -0.1386433820
C        0.8200071029   -0.3650139804   -0.2232833221
C        0.0096338266    0.4091125762    0.7464386647
C       -0.4625668217   -0.1659771597    2.0257493630
N        0.5815577423    0.4350234199    2.3235846493
C        0.5957544914   -0.1813556156   -1.7053101287
C        1.6695183069    0.3707988238   -1.2480166411
H        1.1480456361   -1.3378456798    0.1539315961
H       -0.3314785271    1.3968056088    0.4575979326
H       -1.2447097260   -0.7846134643    2.4568199874
H       -0.1045833955   -0.4088034009   -2.4952238961
H        2.5651685314    0.9602675170   -1.3737414327
13   
Iteration 15 Energy -340.82712826
C       -3.0291023565   -0.2433555304   -0.9777930011
N       -2.2128840154   -0.0828475991   -0.1384560539
C        0.8180530565   -0.3654600770   -0.2239590824
C        0.0057738537    0.4085094905    0.7438892917
C       -0.4602056936   -0.1648792698    2.0254646216
N        0.5831348095    0.4349457799    2.3273077866
C        0.5961288356   -0.1815725750   -1.7061900709
C        1.6693067423    0.3705374926   -1.2473797857
H        1.1459588533   -1.3379907751    0.1540226378
H       -0.3347636461    1.3953993927    0.4559061538
H       -1.2428193603   -0.7842179356    2.4552772121
H       -0.1031235070   -0.4099213716   -2.4967237360
H        2.5645424281    0.9608529778   -1.3713659735
13   
Iteration 14 Energy -340.82706338
C       -3.0282997009   -0.2423173128   -0.9763238587
N       -2.2108029700   -0.0819689157   -0.1382101832
C        0.8166844495   -0.3658679998   -0.2243719395
C        0.0036074981    0.4082262454    0.7422768954
C       -0.4584414610   -0.1642300124    2.0250615503
N        0.5844058970    0.4347219258    2.3298752157
C        0.5963658140   -0.1817071725   -1.7066843520
C        1.6692644067    0.3701618467   -1.2469658927
H        1.1445786247   -1.3381327370    0.1542035238
H       -0.3378453348    1.3943193170    0.4545973044
H       -1.2415360680   -0.7837894378    2.4540155498
H       -0.1019314674   -0.4109120819   -2.4977728956
H        2.5639503121    0.9614963351   -1.3697009177
13   
Iteration 13 Energy -340.82701261
C       -3.0278160372   -0.2429381528   -0.9754411721
N       -2.2091136424   -0.0822804654   -0.1382808884
C        0.8156735407   -0.3658366410   -0.2247182521
C        0.0005713843    0.4072341183    0.7400663728
C       -0.4573270395   -0.1636782150    2.0249316913
N        0.5848910887    0.4352285669    2.3317300405
C        0.5965561748   -0.1822897194   -1.7074175059
C        1.6685897994    0.3701184441   -1.2467462389
H        1.1426297666   -1.3382224497    0.1542178629
H       -0.3361276582    1.3969988791    0.4561819240
H       -1.2405471711   -0.7841149687    2.4524483229
H       -0.1014832507   -0.4116752147   -2.4987121765
H        2.5635030446    0.9614558183   -1.3682599806
13   
Iteration 12 Energy -340.82696433
C       -3.0272049316   -0.2420311197   -0.9742869655
N       -2.2074967064   -0.0815473025   -0.1380268057
C        0.8145993240   -0.3662108624   -0.2250183077
C       -0.0009044174    0.4069862001    0.7388696954
C       -0.4559014470   -0.1632334472    2.0245295899
N        0.5859964256    0.4349496794    2.3337419054
C        0.5967464923   -0.1823885609   -1.7077551275
C        1.6685927499    0.3697296489   -1.2464426029
H        1.1415767828   -1.3383668494    0.1543924647
H       -0.3389969088    1.3963232633    0.4550863055
H       -1.2395431647   -0.7837056700    2.4513936689
H       -0.1004677742   -0.4125346793   -2.4995509005
H        2.5630035754    0.9620296997   -1.3669329200
13   
Iteration 11 Energy -340.82692796
C       -3.0267474964   -0.2410646713   -0.9734126114
N       -2.2063561154   -0.0808114669   -0.1377693709
C        0.8138272181   -0.3665694946   -0.2252196873
C       -0.0016236805    0.4069353134    0.7382378436
C       -0.4548334206   -0.1629577340    2.0241905731
N        0.5869237469    0.4345591800    2.3352167320
C        0.5968867527   -0.1823543472   -1.7079056925
C        1.6687387785    0.3693749046   -1.2462051694
H        1.1410292544   -1.3384843774    0.1545487110
H       -0.3420534621    1.3952533624    0.4536786802
H       -1.2388133498   -0.7832768419    2.4507695938
H       -0.0996376109   -0.4131533741   -2.5001174635
H        2.5626593852    0.9625495471   -1.3660121387
13   
Iteration 10 Energy -340.82689997
C       -3.0264171071   -0.2402143921   -0.9727759344
N       -2.2055742578   -0.0801817758   -0.1375491965
C        0.8132913649   -0.3668672945   -0.2253531547
C       -0.0019494492    0.4069705296    0.7379344824
C       -0.4540731917   -0.1627918459    2.0239374812
N        0.5876373264    0.4341748378    2.3362673179
C        0.5969844187   -0.1822667789   -1.7079580708
C        1.6689231348    0.3690962822   -1.2460204149
H        1.1407742551   -1.3385701950    0.1546731333
H       -0.3447261391    1.3941689878    0.4522884541
H       -1.2382946825   -0.7829145244    2.4504304626
H       -0.0990190148   -0.4135686537   -2.5004849581
H        2.5624433422    0.9629648229   -1.3653896023
13   
Iteration 9 Energy -340.82687848
C       -3.0261820191   -0.2395374530   -0.9723206191
N       -2.2050444144   -0.0796882404   -0.1373777393
C        0.8129239242   -0.3670952459   -0.2254422144
C       -0.0020909855    0.4070324886    0.7378007370
C       -0.4535437142   -0.1626914956    2.0237587981
N        0.5881597569    0.4338504873    2.3370056458
C        0.5970495033   -0.1821718596   -1.7079667735
C        1.6690935799    0.3688936436   -1.2458788522
H        1.1406657978   -1.3386286785    0.1547676514
H       -0.3468336254    1.3932369397    0.4510913786
H       -1.2379304916   -0.7826374413    2.4502531503
H       -0.0985794510   -0.4138401393   -2.5007212647
H        2.5623121391    0.9632769946   -1.3649698979
13   
Iteration 8 Energy -340.82686223
C       -3.0260153088   -0.2390260140   -0.9719971653
N       -2.2046852704   -0.0793187631   -0.1372511506
C        0.8126715511   -0.3672619370   -0.2255025637
C       -0.0021515197    0.4070961038    0.7377469656
C       -0.4531767915   -0.1626280686    2.0236349087
N        0.5885328357    0.4335983763    2.3375224167
C        0.5970918434   -0.1820886320   -1.7079595598
C        1.6692327613    0.3687517372   -1.2457727006
H        1.1406242899   -1.3386665681    0.1548378906
H       -0.3484068153    1.3924897411    0.4501396674
H       -1.2376762703   -0.7824338184    2.4501608559
H       -0.0982724030   -0.4140175130   -2.5008746034
H        2.5622310974    0.9635053559   -1.3646849617
13   
Iteration 7 Energy -340.82685014
C       -3.0258970909   -0.2386499792   -0.9717680036
N       -2.2044406134   -0.0790483285   -0.1371604431
C        0.8124971084   -0.3673804231   -0.2255441200
C       -0.0021775133    0.4071533273    0.7377282684
C       -0.4529220880   -0.1625850232    2.0235489354
N        0.5887962988    0.4334119633    2.3378838292
C        0.5971190557   -0.1820217333   -1.7079485560
C        1.6693398057    0.3686543904   -1.2456947219
H        1.1406116600   -1.3386899804    0.1548896422
H       -0.3495468252    1.3919062885    0.4494183006
H       -1.2375001910   -0.7822865486    2.4501127780
H       -0.0980588245   -0.4141346344   -2.5009758246
H        2.5621792178    0.9636706811   -1.3644900847
13   
Iteration 6 Energy -340.82684126
C       -3.0258133066   -0.2383775480   -0.9716060053
N       -2.2042729854   -0.0788526301   -0.1370965739
C        0.8123757769   -0.3674631969   -0.2255731727
C       -0.0021890176    0.4072019278    0.7377238178
C       -0.4527448231   -0.1625538635    2.0234889220
N        0.5889813643    0.4332782589    2.3381366918
C        0.5971365276   -0.1819701806   -1.7079383299
C        1.6694194075    0.3685883517   -1.2456384361
H        1.1406106401   -1.3387035873    0.1549274389
H       -0.3503592817    1.3914559279    0.4488874119
H       -1.2373787199   -0.7821802865    2.4500875605
H       -0.0979095910   -0.4142127278   -2.5010432998
H        2.5621440089    0.9637895545   -1.3643560251
13   
Iteration 5 Energy -340.82683481
C       -3.0257539792   -0.2381818882   -0.9714916652
N       -2.2041574821   -0.0787119380   -0.1370519915
C        0.8122909380   -0.3675204025   -0.2255936733
C       -0.0021945013    0.4072418230    0.7377244428
C       -0.4526210904   -0.1625303934    2.0234466971
N        0.5891111289    0.4331841929    2.3383136570
C        0.5971477690   -0.1819314129   -1.7079301558
C        1.6694774733    0.3685437820   -1.2455982819
H        1.1406136606   -1.3387109789    0.1549549471
H       -0.3509328987    1.3911116579    0.4485038498
H       -1.2372952303   -0.7821038242    2.4500743075
H       -0.0978049747   -0.4142653476   -2.5010887469
H        2.5621191866    0.9638747300   -1.3642633867
13   
Iteration 4 Energy -340.82683015
C       -3.0257120159   -0.2380421281   -0.9714110521
N       -2.2040774982   -0.0786112381   -0.1370209832
C        0.8122314312   -0.3675598247   -0.2256082211
C       -0.0021973791    0.4072734518    0.7377265063
C       -0.4525345473   -0.1625125556    2.0234169087
N        0.5892020877    0.4331185629    2.3384376779
C        0.5971550766   -0.1819027393   -1.7079240501
C        1.6695193201    0.3685136802   -1.2455698605
H        1.1406176266   -1.3387147132    0.1549747912
H       -0.3513361666    1.3908518807    0.4482296558
H       -1.2372378092   -0.7820488296    2.4500673155
H       -0.0977313291   -0.4143010978   -2.5011195558
H        2.5621012033    0.9639355507   -1.3641991326
13   
Iteration 3 Energy -340.82682681
C       -3.0256823551   -0.2379426512   -0.9713542403
N       -2.2040218567   -0.0785393969   -0.1369994097
C        0.8121896003   -0.3675870008   -0.2256185630
C       -0.0021990610    0.4072978611    0.7377286438
C       -0.4524738842   -0.1624990706    2.0233958439
N        0.5892659022    0.4330729232    2.3385247028
C        0.5971598823   -0.1818817830   -1.7079196346
C        1.6695492678    0.3684932690   -1.2455498153
H        1.1406213272   -1.3387164545    0.1549890503
H       -0.3516192608    1.3906584080    0.4480348294
H       -1.2371982434   -0.7820093959    2.4500636350
H       -0.0976794099   -0.4143255920   -2.5011406396
H        2.5620880913    0.9639788834   -1.3641544028
13   
Iteration 2 Energy -340.82682442
C       -3.0256613981   -0.2378720076   -0.9713141952
N       -2.2039830087   -0.0784882697   -0.1369843759
C        0.8121601426   -0.3676057895   -0.2256259172
C       -0.0022001363    0.4073162839    0.7377304366
C       -0.4524312848   -0.1624889940    2.0233809317
N        0.5893107225    0.4330411717    2.3385858491
C        0.5971630823   -0.1818666020   -1.7079164901
C        1.6695705983    0.3684793400   -1.2455356993
H        1.1406243758   -1.3387171502    0.1549992482
H       -0.3518180176    1.3905160062    0.4478968471
H       -1.2371708562   -0.7819811848    2.4500616655
H       -0.0976427335   -0.4143424814   -2.5011551376
H        2.5620785137    0.9640096774   -1.3641231628
13   
Iteration 1 Energy -340.82682272
C       -3.0256465940   -0.2378219094   -0.9712859490
N       -2.2039558048   -0.0784519473   -0.1369738645
C        0.8121393773   -0.3676188207   -0.2256311401
C       -0.0022008465    0.4073299522    0.7377318516
C       -0.4524013274   -0.1624815525    2.0233703652
N        0.5893422622    0.4330190408    2.3386288601
C        0.5971652303   -0.1818556763   -1.7079142641
C        1.6695857569    0.3684697769   -1.2455257554
H        1.1406267508   -1.3387173397    0.1550065367
H       -0.3519576926    1.3904121989    0.4477992158
H       -1.2371518618   -0.7819610766    2.4500606206
H       -0.0976168364   -0.4143541959   -2.5011651924
H        2.5620715860    0.9640315495   -1.3641012847
13   
Iteration 0 Energy -340.82661156
C       -3.0215842416   -0.2434550617   -0.9666899241
N       -2.1927803623   -0.0808765647   -0.1381089867
C        0.8131820687   -0.3710231178   -0.2289117065
C       -0.0357113203    0.3862200953    0.7131938984
C       -0.4471109480   -0.1532556272    2.0274965049
N        0.5909213143    0.4329521861    2.3652668261
C        0.6001944592   -0.1821010020   -1.7130105402
C        1.6659452069    0.3750542537   -1.2462383131
H        1.1410875815   -1.3429398511    0.1485364113
H       -0.3332554243    1.3936285418    0.4510031968
H       -1.2398451940   -0.7696256275    2.4470194009
H       -0.1016438962   -0.4129200813   -2.5002818612
H        2.5606007561    0.9683418565   -1.3592749066
13   
Iteration 1 Energy -340.82702191
C       -3.0177935360   -0.2483641864   -0.9611908715
N       -2.1817062460   -0.0828086001   -0.1385226595
C        0.8060640867   -0.3660496535   -0.2270492006
C       -0.0771042800    0.3803459687    0.6855110817
C       -0.4329269754   -0.1482027430    2.0215513429
N        0.5994423654    0.4294439670    2.3834124626
C        0.6019378632   -0.1838358913   -1.7145084580
C        1.6629141421    0.3768081453   -1.2432806960
H        1.1257963727   -1.3384245493    0.1547582237
H       -0.3200228915    1.4096021507    0.4571235315
H       -1.2258011610   -0.7741405251    2.4299143406
H       -0.1046297270   -0.4157899747   -2.4969499993
H        2.5638299868    0.9614158917   -1.3507690982
13   
Iteration 2 Energy -340.83042710
C       -3.0067433887   -0.2374597854   -0.9465842990
N       -2.1556774085   -0.0725694257   -0.1350663274
C        0.7961907672   -0.3727499365   -0.2359728582
C       -0.1129414066    0.3585493110    0.6548607381
C       -0.4177920784   -0.1355926200    2.0216850883
N        0.6102738919    0.4229677439    2.4326855357
C        0.6072344776   -0.1810953742   -1.7216954148
C        1.6637642474    0.3775374589   -1.2428599062
H        1.1212840684   -1.3416803647    0.1486785083
H       -0.3518033323    1.3920567834    0.4357463130
H       -1.2165573046   -0.7578300744    2.4265447724
H       -0.0971069477   -0.4238177324   -2.5026370102
H        2.5598744143    0.9716840160   -1.3353851399
13   
Iteration 3 Energy -340.83850168
C       -2.9963752115   -0.2395511203   -0.9326933290
N       -2.1311062290   -0.0737494494   -0.1321093691
C        0.7856076012   -0.3740533832   -0.2352387540
C       -0.1715841568    0.3435098202    0.6163319208
C       -0.3955591174   -0.1269539425    2.0119401412
N        0.6196671581    0.4141571884    2.4735274583
C        0.6098546408   -0.1809463180   -1.7269440803
C        1.6586044146    0.3823492274   -1.2400626976
H        1.1068635565   -1.3439211751    0.1473031837
H       -0.3416925252    1.3946475298    0.4284914568
H       -1.2055773497   -0.7421187066    2.4123271931
H       -0.0952282990   -0.4288465632   -2.5052713847
H        2.5565255173    0.9754768925   -1.3176017391
13   
Iteration 4 Energy -340.84972455
C       -2.9829531265   -0.2317941133   -0.9181567075
N       -2.1008939617   -0.0660379310   -0.1293086220
C        0.7715216301   -0.3755083076   -0.2409948047
C       -0.2276216592    0.3264576808    0.5810593821
C       -0.3839082091   -0.1094845536    2.0040752103
N        0.6275964614    0.4072666811    2.5142702001
C        0.6139626865   -0.1833149242   -1.7314539283
C        1.6553780589    0.3830268996   -1.2358635232
H        1.0916484177   -1.3433838982    0.1492644163
H       -0.3522058662    1.3931447052    0.4157233152
H       -1.1780893275   -0.7427868486    2.4054809354
H       -0.0876904271   -0.4352675135   -2.5115202104
H        2.5532553227    0.9776821233   -1.3025756633
13   
Iteration 5 Energy -340.86229064
C       -2.9630071506   -0.2249712994   -0.8964776354
N       -2.0638833949   -0.0617057047   -0.1250761412
C        0.7555667103   -0.3792025316   -0.2502135263
C       -0.2854863735    0.3127598451    0.5546985947
C       -0.3657165784   -0.1040067950    1.9946522197
N        0.6349262777    0.3942313007    2.5473013830
C        0.6176207928   -0.1866811478   -1.7382912165
C        1.6522010228    0.3850705272   -1.2299725045
H        1.0771168466   -1.3439119887    0.1451591836
H       -0.3676563784    1.3814486549    0.4019557245
H       -1.1685987286   -0.7195242649    2.4150675074
H       -0.0699020701   -0.4386505664   -2.5301720343
H        2.5468190243    0.9851439706   -1.2886315547
13   
Iteration 6 Energy -340.87539166
C       -2.9409158882   -0.2119920650   -0.8723923860
N       -2.0224170500   -0.0514358145   -0.1192982045
C        0.7340249710   -0.3818784363   -0.2611743874
C       -0.3413825527    0.3022685190    0.5316894846
C       -0.3634970959   -0.0837004865    1.9912410373
N        0.6392900538    0.3871965321    2.5703955359
C        0.6210147590   -0.1955688211   -1.7444920310
C        1.6465375611    0.3820790117   -1.2218075575
H        1.0543462469   -1.3430301040    0.1488040234
H       -0.3855008730    1.3852169143    0.3917947728
H       -1.1355890357   -0.7300351255    2.4172278666
H       -0.0443443183   -0.4470163959   -2.5561520660
H        2.5384332221    0.9878962715   -1.2758360883
13   
Iteration 7 Energy -340.88642221
C       -2.9111574583   -0.2084294647   -0.8415245444
N       -1.9797768677   -0.0518028190   -0.1116188959
C        0.7180485284   -0.3852206143   -0.2713257564
C       -0.3939575117    0.3040935249    0.5173894678
C       -0.3442506741   -0.0944482351    1.9824873840
N        0.6416680690    0.3777015147    2.5826455092
C        0.6223471970   -0.1987412028   -1.7565563586
C        1.6401588414    0.3883460635   -1.2165354419
H        1.0409190841   -1.3390358789    0.1355616169
H       -0.3847092737    1.3504184702    0.3880405463
H       -1.1605372669   -0.6902888000    2.4436435921
H       -0.0153085859   -0.4504647167   -2.5857272691
H        2.5265559184    0.9978721581   -1.2664798501
13   
Iteration 8 Energy -340.89665235
C       -2.8941593968   -0.1989674313   -0.8232391083
N       -1.9482108475   -0.0443532403   -0.1058159460
C        0.7025375466   -0.3882375503   -0.2818166754
C       -0.4283302873    0.2906627797    0.5048497645
C       -0.3449328387   -0.0805653532    1.9806830560
N        0.6442218526    0.3708921557    2.5986756312
C        0.6258156336   -0.2059335561   -1.7605858630
C        1.6360379376    0.3838953882   -1.2104749292
H        1.0246010537   -1.3419647023    0.1405494619
H       -0.4078917050    1.3687328579    0.3778371187
H       -1.1325828007   -0.6981021172    2.4402077746
H        0.0020465680   -0.4560825689   -2.6039269649
H        2.5208472840    1.0000233380   -1.2569433201
13   
Iteration 9 Energy -340.90815412
C       -2.8633908830   -0.1878469184   -0.7918519376
N       -1.9019826319   -0.0371251846   -0.0959763360
C        0.6782905516   -0.3904015727   -0.2946081922
C       -0.4772733282    0.2855644597    0.4870695351
C       -0.3462104481   -0.0657149147    1.9767892916