13   
Iteration 19 Energy -340.82899611
C       -3.0908813420   -0.0401490903   -1.0790435642
N       -2.3722541681    0.0687255002   -0.1491773091
C        0.9518351390   -0.2508283402   -0.1973680562
C        0.1422018867    0.5142457589    0.7849553392
C       -0.5153276443   -0.1480665918    1.9439615021
N        0.5284379634    0.4247256912    2.3103530546
C        0.6008677507   -0.1816813574   -1.6676475607
C        1.6593215219    0.4765124278   -1.3311159469
H        1.3795442267   -1.1732352941    0.2074268720
H       -0.2183240158    1.4916808582    0.4773689767
H       -1.3299902121   -0.7629760466    2.3076877207
H       -0.1386482739   -0.5051093801   -2.3853576616
H        2.4877216884    1.1278617979   -1.5665986696
13   
Iteration 1 Energy -340.97170795
C       -1.4077009182   -1.5153157039    0.0228957714
N       -2.0995855304   -1.6282173074   -0.9157349678
C        0.3197792652    1.3041785923   -0.1827202233
C        0.2103080972    0.8015025420    1.0769288146
C        0.0052044355   -0.5436149609    1.5824954645
N       -0.6700444377   -1.5534833878    1.1265109885
C        0.7301870791   -0.5800725760   -1.7915234928
C        0.4238700489    0.6739548142   -1.4983090814
H        0.4116118330    2.3893010978   -0.2292289908
H        0.3476152502    1.5231772116    1.8818656991
H        0.4566356774   -0.7290803359    2.5601506300
H        0.9884493077   -1.5072942435   -1.3003276584
H        0.2836698922    1.3649642577   -2.3330029537
