13   
Iteration 1 Energy -340.97576450
C       -2.4883674882   -0.7546978174    1.6883571065
N       -3.4288028870   -0.2063723531    2.1313866293
C        0.6998047440    0.9751722875   -0.6545814505
C       -0.3948468765    0.4056193538    0.1441204810
C       -0.5008839967   -0.9307642356    0.5218505833
N       -1.4785069705   -1.4836767985    1.2455419038
C        2.1124455576    0.3922352928   -0.6057250305
C        1.4577828500    0.1376439713   -1.6848748501
H        0.5939212240    2.0453163822   -0.8427601146
H       -1.1834411223    1.0849395488    0.4640725524
H        0.2739288550   -1.6308147666    0.2150776048
H        2.9813175752    0.2990486092    0.0284982971
H        1.3556485357   -0.3336494738   -2.6509637130
13   
Iteration 131 Energy -340.97576452
C       -2.4907259639   -0.7555913870    1.6843635522
N       -3.4364356975   -0.2092691331    2.1185968155
C        0.7011678618    0.9757128965   -0.6520950996
C       -0.3935454163    0.4061483467    0.1463725578
C       -0.4962606915   -0.9290762515    0.5292834898
N       -1.4751327281   -1.4823593585    1.2511283930
C        2.1121073207    0.3886832013   -0.6096284330
C        1.4537242462    0.1394306579   -1.6878094600
H        0.5973814629    2.0466356097   -0.8369710558
H       -1.1849655930    1.0844926710    0.4616021975
H        0.2825734983   -1.6276676094    0.2291582605
H        2.9828100418    0.2906842716    0.0213584883
H        1.3473016586   -0.3278239152   -2.6553597061
13   
Iteration 130 Energy -340.97576355
C       -2.4915541163   -0.7566741827    1.6825964297
N       -3.4400709050   -0.2120285672    2.1127617335
C        0.7020540664    0.9765685695   -0.6510564268
C       -0.3929041887    0.4072260496    0.1473863537
C       -0.4939388416   -0.9273719454    0.5326020670
N       -1.4728774437   -1.4815765470    1.2536157872
C        2.1116820346    0.3866019244   -0.6112264509
C        1.4514434675    0.1399998525   -1.6889098933
H        0.5999596411    2.0478737416   -0.8344909443
H       -1.1860795179    1.0847000172    0.4597320004
H        0.2868271181   -1.6247986656    0.2351685835
H        2.9829612200    0.2856667449    0.0185118233
H        1.3424974655   -0.3261869919   -2.6566910631
13   
Iteration 129 Energy -340.97576195
C       -2.4932973982   -0.7568558143    1.6799782034
N       -3.4448682649   -0.2132402813    2.1046852492
C        0.7028586794    0.9764419382   -0.6495238669
C       -0.3919473564    0.4070843930    0.1489864612
C       -0.4913417098   -0.9268241508    0.5373592933
N       -1.4713693155   -1.4808242467    1.2570266029
C        2.1117236714    0.3847554242   -0.6139475953
C        1.4493170995    0.1412904904   -1.6909839520
H        0.6015043635    2.0482008779   -0.8308405336
H       -1.1863936944    1.0841650497    0.4591106808
H        0.2916669395   -1.6235066792    0.2442458305
H        2.9843012417    0.2815467610    0.0136456227
H        1.3378457443   -0.3222337622   -2.6597419959
13   
Iteration 128 Energy -340.97575988
C       -2.4944753836   -0.7576376682    1.6777347708
N       -3.4490039576   -0.2153225641    2.0974348957
C        0.7037542848    0.9769891467   -0.6481355690
C       -0.3911035987    0.4076577165    0.1503938545
C       -0.4888107352   -0.9255203568    0.5414198391
N       -1.4693238344   -1.4800287203    1.2600868256
C        2.1114975411    0.3827437138   -0.6160203190
C        1.4468311845    0.1421585387   -1.6923380401
H        0.6038018884    2.0491572234   -0.8277467903
H       -1.1873281013    1.0840043628    0.4575568796
H        0.2963824025   -1.6213370828    0.2515187037
H        2.9851048490    0.2767911038    0.0096860092
H        1.3326734606   -0.3196554135   -2.6615910598
13   
Iteration 127 Energy -340.97575740
C       -2.4958239151   -0.7580797958    1.6754624715
N       -3.4531415774   -0.2169842532    2.0903517304
C        0.7045726006    0.9771398464   -0.6468364764
C       -0.3902683016    0.4078826486    0.1517552327
C       -0.4864353554   -0.9246455023    0.5455187200
N       -1.4676648990   -1.4792941393    1.2630456466
C        2.1113800309    0.3809099411   -0.6182951712
C        1.4447548435    0.1431650552   -1.6940210007
H        0.6056092195    2.0497137028   -0.8245995911
H       -1.1878413349    1.0836267988    0.4566196556
H        0.3006790436   -1.6194696287    0.2593296107
H        2.9859900701    0.2726186266    0.0056299323
H        1.3281895753   -0.3165833003   -2.6639607603
13   
Iteration 126 Energy -340.97575446
C       -2.4970434465   -0.7587144149    1.6732549103
N       -3.4571120951   -0.2188194839    2.0833339571
C        0.7053677543    0.9774847873   -0.6454932578
C       -0.3894785787    0.4082935651    0.1531179859
C       -0.4840724884   -0.9235403206    0.5495029810
N       -1.4659113947   -1.4785213326    1.2659965948
C        2.1111999281    0.3790419169   -0.6203664355
C        1.4424872019    0.1440517341   -1.6954138175
H        0.6075964000    2.0504365489   -0.8216409782
H       -1.1885294649    1.0835314364    0.4554174935
H        0.3051920326   -1.6176880060    0.2665193440
H        2.9868381807    0.2682917130    0.0016896412
H        1.3234659706   -0.3138481436   -2.6659184186
13   
Iteration 125 Energy -340.97575113
C       -2.4982523635   -0.7592116231    1.6710789393
N       -3.4609827795   -0.2205263383    2.0764690861
C        0.7062196210    0.9777217047   -0.6442372896
C       -0.3886393692    0.4085630675    0.1544390882
C       -0.4817836832   -0.9226077092    0.5534061665
N       -1.4642233047   -1.4777966468    1.2688613472
C        2.1110584072    0.3772581313   -0.6225154915
C        1.4403927383    0.1449968852   -1.6969405925
H        0.6094973850    2.0510620557   -0.8185825182
H       -1.1891410321    1.0830495101    0.4543074589
H        0.3092263194   -1.6156614907    0.2739359736
H        2.9876451089    0.2641821608   -0.0021967022
H        1.3189829523   -0.3110297073   -2.6680254657
13   
Iteration 124 Energy -340.97574752
C       -2.4994089453   -0.7597865017    1.6689946101
N       -3.4646740662   -0.2222793794    2.0699120466
C        0.7069028835    0.9779514310   -0.6430005164
C       -0.3879610626    0.4089417903    0.1556888727
C       -0.4795990469   -0.9215699270    0.5571842975
N       -1.4626660537   -1.4770408937    1.2716188665
C        2.1108590059    0.3754690041   -0.6244548750
C        1.4383303719    0.1458201885   -1.6982798231
H        0.6112737239    2.0516333083   -0.8158929830
H       -1.1896851006    1.0831141856    0.4533396771
H        0.3135031182   -1.6140812666    0.2807404829
H        2.9884013713    0.2601526049   -0.0058942373
H        1.3147238004   -0.3083245444   -2.6699564185
13   
Iteration 123 Energy -340.97574374
C       -2.5004182586   -0.7602902551    1.6670344946
N       -3.4680218968   -0.2238264724    2.0636693206
C        0.7077528263    0.9782656344   -0.6418537592
C       -0.3871406383    0.4092046299    0.1568870824
C       -0.4775583572   -0.9207045960    0.5606173386
N       -1.4610741800   -1.4764132956    1.2741937498
C        2.1107292361    0.3739267144   -0.6263903193
C        1.4363709699    0.1466832556   -1.6995902241
H        0.6131083240    2.0522979003   -0.8130588772
H       -1.1903058177    1.0824959947    0.4521710319
H        0.3169870995   -1.6120722019    0.2873459248
H        2.9890774003    0.2564280578   -0.0093681510
H        1.3104932927   -0.3059953660   -2.6716576119
13   
Iteration 122 Energy -340.97574006
C       -2.5014996950   -0.7606330925    1.6653275025
N       -3.4712158318   -0.2252087115    2.0582194510
C        0.7082483947    0.9782527622   -0.6408048201
C       -0.3866268052    0.4093493670    0.1579465891
C       -0.4757825706   -0.9199236033    0.5639604559
N       -1.4599872140   -1.4756762018    1.2766331720
C        2.1106240165    0.3723719182   -0.6280153040
C        1.4347368861    0.1474050264   -1.7007365782
H        0.6144479736    2.0525585220   -0.8108516440
H       -1.1907328090    1.0825919054    0.4513884747
H        0.3205730235   -1.6111134911    0.2931604895
H        2.9899474166    0.2532511451   -0.0126945265
H        1.3072672147   -0.3032255460   -2.6735332619
13   
Iteration 121 Energy -340.97573544
C       -2.5023728970   -0.7613800987    1.6632197401
N       -3.4745088792   -0.2272134719    2.0517879212
C        0.7091104879    0.9787225185   -0.6397196161
C       -0.3858741828    0.4099811234    0.1590537341
C       -0.4735975202   -0.9187808993    0.5673245423
N       -1.4580861847   -1.4750883039    1.2790486619
C        2.1102600812    0.3706598804   -0.6299778647
C        1.4326811003    0.1481765173   -1.7021347159
H        0.6164797637    2.0533924461   -0.8080715449
H       -1.1912485333    1.0823471911    0.4504631765
H        0.3243778138   -1.6084493839    0.2999780026
H        2.9900825770    0.2489527761   -0.0158504032
H        1.3026963733   -0.3013202952   -2.6751216338
13   
Iteration 120 Energy -340.97573047
C       -2.5033287829   -0.7619369018    1.6612684273
N       -3.4777991701   -0.2287613531    2.0453393402
C        0.7097519652    0.9789908570   -0.6384347264
C       -0.3852340998    0.4102505892    0.1603572710
C       -0.4715114689   -0.9177069204    0.5710015684
N       -1.4565672205   -1.4742574169    1.2819514832
C        2.1100752889    0.3688404955   -0.6316170174
C        1.4304462797    0.1489194279   -1.7030557927
H        0.6183313850    2.0539617586   -0.8055059664
H       -1.1921503575    1.0821298518    0.4489607866
H        0.3283917494   -1.6070830722    0.3060893992
H        2.9911008264    0.2451333394   -0.0196227334
H        1.2984936050   -0.2984806549   -2.6767320396
13   
Iteration 119 Energy -340.97572389
C       -2.5052454027   -0.7620937802    1.6589186344
N       -3.4825279587   -0.2303121089    2.0377335513
C        0.7109282513    0.9788316723   -0.6370305239
C       -0.3839528420    0.4098806275    0.1618864342
C       -0.4693591797   -0.9172638843    0.5757649155
N       -1.4554933585   -1.4734002606    1.2853351849
C        2.1103772119    0.3674434154   -0.6346674421
C        1.4287133002    0.1505127903   -1.7054055997
H        0.6200707165    2.0542403147   -0.8016430370
H       -1.1922374838    1.0810402683    0.4479637163
H        0.3321455718   -1.6056114951    0.3154778749
H        2.9924383814    0.2414269214   -0.0246086761
H        1.2941427924   -0.2946944806   -2.6797250327
13   
Iteration 118 Energy -340.97570936
C       -2.5069981570   -0.7640048044    1.6539104432
N       -3.4899924552   -0.2354324643    2.0223201630
C        0.7124246623    0.9796979494   -0.6343070545
C       -0.3828541116    0.4116214086    0.1644435104
C       -0.4639946450   -0.9139645420    0.5839862729
N       -1.4509280887   -1.4715377287    1.2914441226
C        2.1091234458    0.3624313245   -0.6385189836
C        1.4233215938    0.1517947873   -1.7078686112
H        0.6249448342    2.0558760814   -0.7958162450
H       -1.1940270396    1.0816297480    0.4454824809
H        0.3423177187   -1.5998291068    0.3306701580
H        2.9930567242    0.2308111717   -0.0323457575
H        1.2836055180   -0.2890938246   -2.6834004991
13   
Iteration 117 Energy -340.97569101
C       -2.5099450466   -0.7652311585    1.6488491289
N       -3.4987695326   -0.2396921251    2.0057658914
C        0.7146376416    0.9801685420   -0.6312483369
C       -0.3806052324    0.4119346887    0.1677186386
C       -0.4590511508   -0.9116965868    0.5937162944
N       -1.4475698388   -1.4694953734    1.2987429209
C        2.1089611647    0.3584900241   -0.6438120087
C        1.4184063019    0.1544368908   -1.7114447963
H        0.6296359723    2.0571727921   -0.7884768150
H       -1.1953599594    1.0801804551    0.4421005484
H        0.3513236158   -1.5957120626    0.3484891372
H        2.9951929980    0.2213436290   -0.0422021718
H        1.2731430663   -0.2818997154   -2.6881984311
13   
Iteration 116 Energy -340.97567267
C       -2.5119326639   -0.7667071187    1.6440607201
N       -3.5059533522   -0.2442891851    1.9910583927
C        0.7162278660    0.9805351451   -0.6286452262
C       -0.3793911091    0.4130408554    0.1701446917
C       -0.4542388193   -0.9090127477    0.6017352364
N       -1.4438289968   -1.4676734304    1.3046124911
C        2.1080253858    0.3540726345   -0.6479358831
C        1.4137078745    0.1559380789   -1.7142091633
H        0.6339987483    2.0582714325   -0.7825421370
H       -1.1966235668    1.0802123076    0.4401200844
H        0.3602737081   -1.5903927920    0.3638689269
H        2.9960618281    0.2120397994   -0.0501089258
H        1.2636730976   -0.2760349796   -2.6921592080
13   
Iteration 115 Energy -340.97565423
C       -2.5141186874   -0.7678630287    1.6400381788
N       -3.5126129490   -0.2479897896    1.9778153731
C        0.7179405357    0.9809667196   -0.6262519454
C       -0.3776389806    0.4134656162    0.1727930837
C       -0.4503825440   -0.9069646970    0.6095493388
N       -1.4411720749   -1.4659296806    1.3104824778
C        2.1077656833    0.3507761935   -0.6519885647
C        1.4096670639    0.1579800002   -1.7168423610
H        0.6378643374    2.0593106983   -0.7769682908
H       -1.1977082593    1.0792848121    0.4372194087
H        0.3674371287   -1.5870902170    0.3778288204
H        2.9976213322    0.2043063818   -0.0579219489
H        1.2553374140   -0.2702530088   -2.6957535706
13   
Iteration 114 Energy -340.97563429
C       -2.5158311946   -0.7691702994    1.6356824597
N       -3.5188662615   -0.2522719629    1.9645224955
C        0.7195042531    0.9813024041   -0.6238935888
C       -0.3764498865    0.4143944389    0.1749746923
C       -0.4461397390   -0.9045160641    0.6167153823
N       -1.4378747592   -1.4642265322    1.3157436638
C        2.1069207209    0.3469350493   -0.6557968421
C        1.4054535590    0.1593917313   -1.7193508572
H        0.6419320148    2.0602888580   -0.7714676223
H       -1.1988172075    1.0790318390    0.4353321823
H        0.3751655577   -1.5820057293    0.3917860106
H        2.9982883024    0.1960011501   -0.0651006623
H        1.2467146404   -0.2651548829   -2.6991473138
13   
Iteration 113 Energy -340.97561214
C       -2.5179069431   -0.7705408192    1.6315117789
N       -3.5252805393   -0.2562325871    1.9509726848
C        0.7210853143    0.9816095127   -0.6215504684
C       -0.3748789780    0.4150322244    0.1776397115
C       -0.4422108397   -0.9022302520    0.6246582395
N       -1.4351461656   -1.4624241552    1.3216140199
C        2.1063936807    0.3432672214   -0.6597455863
C        1.4012679370    0.1612404446   -1.7218896966
H        0.6458683232    2.0611822104   -0.7661297117
H       -1.1998292484    1.0785236358    0.4327388507
H        0.3825779787   -1.5783168784    0.4059115862
H        2.9995928222    0.1880090034   -0.0729255687
H        1.2384666579   -0.2591195608   -2.7028058399
13   
Iteration 112 Energy -340.97558885
C       -2.5196605208   -0.7715006990    1.6271431617
N       -3.5315635173   -0.2605392527    1.9375618314
C        0.7229242520    0.9819440714   -0.6189511472
C       -0.3734092687    0.4156195421    0.1798586524
C       -0.4382136986   -0.9000306087    0.6317618748
N       -1.4321874059   -1.4605490170    1.3269242078
C        2.1059172928    0.3399406402   -0.6637873303
C        1.3971119065    0.1628534046   -1.7243189843
H        0.6499195366    2.0621186201   -0.7602566766
H       -1.2008106992    1.0777231535    0.4305613314
H        0.3897095253   -1.5736498999    0.4199299323
H        3.0007647327    0.1803241575   -0.0806285167
H        1.2294978645   -0.2542541120   -2.7057983369
13   
Iteration 111 Energy -340.97556254
C       -2.5214745286   -0.7737714512    1.6229268854
N       -3.5372864212   -0.2650094299    1.9239987080
C        0.7242040257    0.9823190359   -0.6171565131
C       -0.3721050426    0.4169557119    0.1826675155
C       -0.4340620319   -0.8969468262    0.6401106256
N       -1.4290278569   -1.4588837838    1.3328365544
C        2.1045552063    0.3353540446   -0.6674176796
C        1.3927562295    0.1645276313   -1.7270150647
H        0.6543218980    2.0630862390   -0.7555841841
H       -1.2020574321    1.0778942142    0.4278955662
H        0.3976474453   -1.5686523081    0.4342669654
H        3.0007009053    0.1708995170   -0.0875927383
H        1.2218276031   -0.2477725945   -2.7099366407
13   
Iteration 110 Energy -340.97552620
C       -2.5239186607   -0.7745218963    1.6168144397
N       -3.5458573782   -0.2706464863    1.9051908547
C        0.7268025978    0.9825165517   -0.6131653396
C       -0.3699860972    0.4172789248    0.1857044609
C       -0.4289114768   -0.8944196265    0.6496157532
N       -1.4255378875   -1.4560849590    1.3401089221
C        2.1043723680    0.3313870721   -0.6730887113
C        1.3870428493    0.1667028028   -1.7299451874
H        0.6594354001    2.0640220288   -0.7473423982
H       -1.2029153165    1.0766044716    0.4254193631
H        0.4068690380   -1.5633164857    0.4532061996
H        3.0033133495    0.1617245809   -0.0990687342
H        1.2092912142   -0.2412469789   -2.7134496228
13   
Iteration 109 Energy -340.97548303
C       -2.5263776015   -0.7772840094    1.6107103392
N       -3.5538329122   -0.2772497600    1.8857811557
C        0.7290503458    0.9829691397   -0.6103367159
C       -0.3678840027    0.4187828059    0.1895711594
C       -0.4232721783   -0.8902818611    0.6611616792
N       -1.4213413885   -1.4534807487    1.3483791251
C        2.1027739613    0.3254481417   -0.6785457156
C        1.3809406684    0.1691758325   -1.7336753788
H        0.6657870667    2.0652675361   -0.7401647756
H       -1.2045132137    1.0761043746    0.4215655535
H        0.4172414978   -1.5559815324    0.4737351836
H        3.0035705210    0.1490988660   -0.1094496089
H        1.1978572360   -0.2325687848   -2.7187320010
13   
Iteration 108 Energy -340.97543728
C       -2.5286949069   -0.7789431136    1.6042929120
N       -3.5620176590   -0.2837766136    1.8659322714
C        0.7314700810    0.9832161286   -0.6066394159
C       -0.3658788030    0.4197629736    0.1929343803
C       -0.4178294336   -0.8868367358    0.6716632491
N       -1.4174866454   -1.4505307653    1.3562003449
C        2.1018426380    0.3204341474   -0.6841710015
C        1.3747301595    0.1713749662   -1.7367617921
H        0.6716044763    2.0662537851   -0.7322429472
H       -1.2055594709    1.0754478132    0.4186634349
H        0.4273113247   -1.5495293276    0.4938128117
H        3.0051745938    0.1381915247   -0.1209297603
H        1.1853336456   -0.2250647828   -2.7227544873
13   
Iteration 107 Energy -340.97538914
C       -2.5308897757   -0.7812180904    1.5982633153
N       -3.5694189123   -0.2903248839    1.8469690083
C        0.7338372607    0.9834839282   -0.6036474616
C       -0.3637919667    0.4209228282    0.1965224450
C       -0.4126140975   -0.8830392173    0.6824501175
N       -1.4137082054   -1.4477864772    1.3640246262
C        2.1005397206    0.3151122029   -0.6895459671
C        1.3688505396    0.1736943104   -1.7400782892
H        0.6776355296    2.0672181926   -0.7250779156
H       -1.2068316372    1.0746728809    0.4152497465
H        0.4366548827   -1.5424226663    0.5134926272
H        3.0057991558    0.1267925096   -0.1313982952
H        1.1739375057   -0.2171055177   -2.7272239572
13   
Iteration 106 Energy -340.97533840
C       -2.5329237916   -0.7831400474    1.5921274027
N       -3.5766812505   -0.2969564815    1.8279095954
C        0.7361044225    0.9837412925   -0.6003246583
C       -0.3618932567    0.4220845116    0.1998081870
C       -0.4075309327   -0.8794013415    0.6926879498
N       -1.4100694666   -1.4448656582    1.3716075218
C        2.0993528760    0.3100468498   -0.6948230635
C        1.3628292784    0.1758102983   -1.7429698555
H        0.6834747079    2.0681357052   -0.7177837583
H       -1.2078448805    1.0741503338    0.4122242353
H        0.4461643052   -1.5358550627    0.5327929666
H        3.0068152444    0.1159395284   -0.1422178191
H        1.1622027440   -0.2096899283   -2.7310387038
13   
Iteration 105 Energy -340.97528485
C       -2.5348538954   -0.7853622171    1.5861563832
N       -3.5834661045   -0.3036674821    1.8092294064
C        0.7384271129    0.9838920781   -0.5973905997
C       -0.3599181325    0.4232166972    0.2032397589
C       -0.4025542111   -0.8755680457    0.7031210861
N       -1.4064583766   -1.4420294697    1.3791835819
C        2.0980028337    0.3048449064   -0.7000246898
C        1.3570618522    0.1779877718   -1.7460349937
H        0.6894042166    2.0689108111   -0.7108758817
H       -1.2089622740    1.0734464725    0.4090695409
H        0.4549567980   -1.5285545640    0.5519467211
H        3.0072974423    0.1048962041   -0.1525144733
H        1.1510627385   -0.2020131628   -2.7351058402
13   
Iteration 104 Energy -340.97522843
C       -2.5366656413   -0.7873814249    1.5801281514
N       -3.5900946754   -0.3104668243    1.7904445953
C        0.7406889953    0.9841708552   -0.5942248069
C       -0.3580247350    0.4244475545    0.2064739482
C       -0.3977287261   -0.8718309997    0.7131927466
N       -1.4029977202   -1.4390422376    1.3866733877
C        2.0966801905    0.2998115470   -0.7051551688
C        1.3511026556    0.1800649997   -1.7487569451
H        0.6953247862    2.0697873328   -0.7038458123
H       -1.2099138563    1.0728897074    0.4059267395
H        0.4640297843   -1.5219067074    0.5708845945
H        3.0079863957    0.0941572391   -0.1630907323
H        1.1396125467   -0.1947010418   -2.7386506977
13   
Iteration 103 Energy -340.97516905
C       -2.5383574583   -0.7896641221    1.5741638521
N       -3.5963190245   -0.3174154091    1.7718520315
C        0.7429227052    0.9842095529   -0.5913698545
C       -0.3561779854    0.4256244814    0.2098120811
C       -0.3929058260   -0.8678407744    0.7234692228
N       -1.3994691978   -1.4361060220    1.3941160613
C        2.0951912880    0.2945792162   -0.7102095987
C        1.3453882270    0.1821274200   -1.7516600810
H        0.7012410485    2.0703879787   -0.6971889246
H       -1.2109268673    1.0723066476    0.4030052188
H        0.4724558126   -1.5142511697    0.5897434877
H        3.0082169095    0.0831792539   -0.1732479171
H        1.1287403687   -0.1871370533   -2.7424855794
13   
Iteration 102 Energy -340.97510650
C       -2.5399866828   -0.7917472061    1.5681640305
N       -3.6024288724   -0.3244140529    1.7531011813
C        0.7452776823    0.9845223268   -0.5882772949
C       -0.3542168894    0.4268785604    0.2130377209
C       -0.3882869969   -0.8640405775    0.7334760321
N       -1.3961797062   -1.4330228002    1.4016013449
C        2.0937607456    0.2895834186   -0.7152908158
C        1.3394251777    0.1842025443   -1.7542510849
H        0.7072934194    2.0712457215   -0.6902645273
H       -1.2118129764    1.0716629993    0.3996603917
H        0.4811585155   -1.5075518321    0.6085723837
H        3.0086525080    0.0725469119   -0.1837525468
H        1.1173440757   -0.1798660139   -2.7457768154
13   
Iteration 101 Energy -340.97504027
C       -2.5414786116   -0.7941376396    1.5620795831
N       -3.6082061242   -0.3317149030    1.7342507628
C        0.7474113460    0.9844354781   -0.5854362068
C       -0.3524948717    0.4281491577    0.2163488928
C       -0.3835193915   -0.8597878753    0.7437988423
N       -1.3926682378   -1.4299310739    1.4090319322
C        2.0920942940    0.2842050253   -0.7202904302
C        1.3336459407    0.1862032209   -1.7570650807
H        0.7133177606    2.0716684710   -0.6837233750
H       -1.2127608297    1.0711687662    0.3969561834
H        0.4894379539   -1.4993666105    0.6275060136
H        3.0086345903    0.0613937939   -0.1939737271
H        1.1065861810   -0.1722858108   -2.7494833903
13   
Iteration 100 Energy -340.97496943
C       -2.5429858437   -0.7963537151    1.5558998033
N       -3.6139744268   -0.3391123446    1.7149317855
C        0.7499891392    0.9847584087   -0.5823156714
C       -0.3503707571    0.4294162570    0.2197099483
C       -0.3789524681   -0.8558340309    0.7540976125
N       -1.3894713764   -1.4266766603    1.4167351413
C        2.0905154658    0.2790852065   -0.7254974168
C        1.3275035739    0.1883530677   -1.7596269130
H        0.7196602273    2.0724996168   -0.6766922167
H       -1.2135924523    1.0704425186    0.3932727954
H        0.4979784156   -1.4923955507    0.6468759907
H        3.0088375821    0.0505837593   -0.2047419826
H        1.0948629206   -0.1647665330   -2.7526488765
13   
Iteration 99 Energy -340.97489313
C       -2.5443485415   -0.7989109320    1.5494243382
N       -3.6195186502   -0.3470334977    1.6950271597
C        0.7521213734    0.9845824184   -0.5793286745
C       -0.3486583155    0.4308506764    0.2231477812
C       -0.3740910949   -0.8511821257    0.7648559148
N       -1.3859052638   -1.4232879581    1.4244402958
C        2.0886465256    0.2734057143   -0.7306828891
C        1.3213792624    0.1904192647   -1.7624291406
H        0.7260760638    2.0727961840   -0.6699381235
H       -1.2145063394    1.0699103271    0.3906176922
H        0.5064812538   -1.4834949556    0.6666766729
H        3.0086342067    0.0388862292   -0.2155247757
H        1.0836895194   -0.1569413448   -2.7562862513
13   
Iteration 98 Energy -340.97481122
C       -2.5457220442   -0.8013607908    1.5428580304
N       -3.6250006036   -0.3550657944    1.6745857349
C        0.7549306011    0.9848275055   -0.5761233659
C       -0.3463822652    0.4321600874    0.2267567741
C       -0.3694148468   -0.8468970120    0.7757420494
N       -1.3826714367   -1.4197884081    1.4325119392
C        2.0868344622    0.2679637846   -0.7361129024
C        1.3149100701    0.1926581664   -1.7650202641
H        0.7328084779    2.0735164441   -0.6627149461
H       -1.2152792839    1.0691975592    0.3866797731
H        0.5150105084   -1.4758184242    0.6870660093
H        3.0085547430    0.0275565472   -0.2267998468
H        1.0714216176   -0.1489496648   -2.7594289851
13   
Iteration 97 Energy -340.97472419
C       -2.5469474594   -0.8040457495    1.5360283003
N       -3.6302103515   -0.3635111113    1.6537061353
C        0.7571315923    0.9846313526   -0.5730150188
C       -0.3445772230    0.4337399206    0.2303501969
C       -0.3645670970   -0.8419610561    0.7868504091
N       -1.3791735466   -1.4161253951    1.4404630664
C        2.0848107322    0.2621161185   -0.7414964215
C        1.3084579755    0.1948067082   -1.7677489498
H        0.7395940631    2.0737450268   -0.6557821171
H       -1.2161009243    1.0685478292    0.3840122897
H        0.5236223485   -1.4665097749    0.7075954669
H        3.0081794932    0.0155395053   -0.2380964290
H        1.0597803970   -0.1409733743   -2.7628669284
13   
Iteration 96 Energy -340.97463263
C       -2.5480796933   -0.8066573624    1.5292475043
N       -3.6351511927   -0.3719754775    1.6326836170
C        0.7599822541    0.9847582257   -0.5698186749
C       -0.3422906126    0.4350792914    0.2340821086
C       -0.3599055175   -0.8374176005    0.7979410524
N       -1.3759477852   -1.4124690566    1.4486264554
C        2.0828053004    0.2565234643   -0.7469359275
C        1.3018424977    0.1970061749   -1.7702274138
H        0.7464665712    2.0742887810   -0.6486502626
H       -1.2167529251    1.0679363756    0.3801494404
H        0.5318418919   -1.4582247346    0.7282495647
H        3.0078110956    0.0040073598   -0.2495266262
H        1.0473781156   -0.1328554410   -2.7658208379
13   
Iteration 95 Energy -340.97453697
C       -2.5490937888   -0.8094044913    1.5222912569
N       -3.6397665319   -0.3806436614    1.6115178317
C        0.7621983417    0.9845627434   -0.5667701560
C       -0.3404230692    0.4367574348    0.2377353498
C       -0.3552512191   -0.8323781986    0.8090324901
N       -1.3726413630   -1.4086776260    1.4565580734
C        2.0806522556    0.2507157691   -0.7523233221
C        1.2953082883    0.1991303389   -1.7728023728
H        0.7533643312    2.0744533200   -0.6418533907
H       -1.2174251934    1.0672423898    0.3776486109
H        0.5402257599   -1.4488571565    0.7487662438
H        3.0071659737   -0.0079127393   -0.2608424811
H        1.0356862150   -0.1249881228   -2.7689581339
13   
Iteration 94 Energy -340.97443738
C       -2.5499288022   -0.8120862669    1.5154612553
N       -3.6440171381   -0.3893285434    1.5903764076
C        0.7649736511    0.9846182872   -0.5636208574
C       -0.3381887932    0.4381098611    0.2414853079
C       -0.3507144268   -0.8276914951    0.8200062974
N       -1.3694863678   -1.4049332395    1.4646179227
C        2.0785178856    0.2451514610   -0.7576210351
C        1.2886626131    0.2012196673   -1.7750468451
H        0.7602255439    2.0748529162   -0.6349511220
H       -1.2179381595    1.0667051083    0.3739487347
H        0.5479435082   -1.4402194520    0.7690906567
H        3.0065576664   -0.0193467385   -0.2721837805
H        1.0233928194   -0.1170515656   -2.7715629420
13   
Iteration 93 Energy -340.97433404
C       -2.5506949800   -0.8148957912    1.5084387513
N       -3.6479342568   -0.3981025757    1.5692197401
C        0.7671649580    0.9844104437   -0.5607345413
C       -0.3363066352    0.4398857129    0.2451572182
C       -0.3462857151   -0.8225921329    0.8309624363
N       -1.3663805982   -1.4011058324    1.4723813698
C        2.0761987505    0.2394082055   -0.7629158587
C        1.2821619391    0.2032688475   -1.7774900656
H        0.7671093250    2.0749395221   -0.6284479491
H       -1.2184663753    1.0660807190    0.3717675414
H        0.5560256300   -1.4308312115    0.7893644053
H        3.0055378218   -0.0310961364   -0.2832628116
H        1.0118701361   -0.1093697705   -2.7744402361
13   
Iteration 92 Energy -340.97422687
C       -2.5512211780   -0.8176009088    1.5015999331
N       -3.6514597808   -0.4069078978    1.5480738243
C        0.7698397184    0.9844582637   -0.5575684382
C       -0.3341177564    0.4412549600    0.2489175386