13   
Iteration 15 Energy -340.97464491
C       -1.3354010233   -1.5470444443    0.0232315310
N       -1.9562551644   -1.6985629389   -0.9618110245
C        0.3960859993    1.2869820564   -0.0869566698
C        0.1402463359    0.8301806514    1.1742085082
C       -0.1330548370   -0.4897649097    1.6989756704
N       -0.7220715093   -1.5338982461    1.1971514404
C        0.5848264051   -0.6989402008   -1.5854535064
C        0.5769130395    0.6092031457   -1.3569981494
H        0.5613803406    2.3618199612   -0.1477764433
H        0.2333937099    1.5739301736    1.9645592759
H        0.1867449301   -0.6313496371    2.7341186308
H        0.7078169230   -1.3408555900   -2.4468198940
H        0.7593748507    1.2782999787   -2.2064293692
