13   
Iteration 0 Energy -340.97464482
C       -1.3354010233   -1.5470444443    0.0232315310
N       -1.9562551644   -1.6985629389   -0.9618110245
C        0.3960859993    1.2869820564   -0.0869566698
C        0.1402463359    0.8301806514    1.1742085082
C       -0.1330548370   -0.4897649097    1.6989756704
N       -0.7220715093   -1.5338982461    1.1971514404
C        0.5848264051   -0.6989402008   -1.5854535064
C        0.5769130395    0.6092031457   -1.3569981494
H        0.5613803406    2.3618199612   -0.1477764433
H        0.2333937099    1.5739301736    1.9645592759
H        0.1867449301   -0.6313496371    2.7341186308
H        0.7078169230   -1.3408555900   -2.4468198940
H        0.7593748507    1.2782999787   -2.2064293692
13   
Iteration 1 Energy -340.97464197
C       -1.3313484292   -1.5444392292    0.0200651022
N       -1.9495534102   -1.6944337388   -0.9668693001
C        0.3952436494    1.2863117474   -0.0866355919
C        0.1399799820    0.8300129345    1.1748165825
C       -0.1327858408   -0.4898468846    1.7000517531
N       -0.7212092202   -1.5330616107    1.1956853909
C        0.5818083888   -0.7008216496   -1.5839024490
C        0.5748601478    0.6074700806   -1.3563013399
H        0.5608239562    2.3610673653   -0.1481778572
H        0.2330215417    1.5740706818    1.9648726154
H        0.1861542252   -0.6319766057    2.7354029725
H        0.7037914483   -1.3434213122   -2.4449039853
H        0.7570273150    1.2758571202   -2.2063525622
13   
Iteration 2 Energy -340.97464433
C       -1.3338467026   -1.5452020121    0.0217873624
N       -1.9540165224   -1.6954755278   -0.9638714928
C        0.3954077392    1.2866256043   -0.0868460613
C        0.1400576236    0.8300161337    1.1744780349
C       -0.1325649589   -0.4899713798    1.6994718228
N       -0.7213658354   -1.5334971310    1.1961833363
C        0.5841104268   -0.6999828682   -1.5845022333
C        0.5759926908    0.6082543343   -1.3566217817
H        0.5603712044    2.3614916343   -0.1481048307
H        0.2330300121    1.5739265461    1.9646846102
H        0.1871001937   -0.6319903157    2.7346107266
H        0.7069584330   -1.3422793061   -2.4456065800
H        0.7580199723    1.2769889893   -2.2064299289
13   
Iteration 3 Energy -340.97464478
C       -1.3344594080   -1.5460351944    0.0225503084
N       -1.9547054143   -1.6969162158   -0.9629775397
C        0.3957013581    1.2865683221   -0.0869604527
C        0.1400737638    0.8299079470    1.1743074927
C       -0.1329331417   -0.4899084548    1.6995561998
N       -0.7218833999   -1.5336614987    1.1968759890
C        0.5843806453   -0.6995473303   -1.5853468861
C        0.5763975644    0.6085992387   -1.3569322240
H        0.5608638550    2.3614168334   -0.1479725046
H        0.2331268655    1.5738537053    1.9644727784
H        0.1866783847   -0.6315932831    2.7347535194
H        0.7072894439   -1.3415016607   -2.4466964392
H        0.7586620069    1.2776258912   -2.2064600900
13   
Iteration 4 Energy -340.97464426
C       -1.3350393771   -1.5477232825    0.0222208272
N       -1.9555450884   -1.6997050627   -0.9629825544
C        0.3961657914    1.2873025572   -0.0869609535
C        0.1401729291    0.8304393061    1.1741587702
C       -0.1334329733   -0.4897698176    1.6981161145
N       -0.7221529431   -1.5341120744    1.1963346389
C        0.5838104959   -0.6991687642   -1.5845038441
C        0.5765859103    0.6091174615   -1.3568241441
H        0.5618879641    2.3620687570   -0.1478600705
H        0.2334367969    1.5739210863    1.9647589173
H        0.1861813814   -0.6315944079    2.7332679473
H        0.7063871047   -1.3416599805   -2.4454972005
H        0.7592662663    1.2777724958   -2.2065613339
13   
Iteration 5 Energy -340.97464468
C       -1.3351197047   -1.5475505954    0.0226376087
N       -1.9554998295   -1.6994448971   -0.9626572726
C        0.3960896204    1.2868900454   -0.0870645638
C        0.1400666235    0.8301090695    1.1740887122
C       -0.1335432308   -0.4898355883    1.6986955361
N       -0.7223969770   -1.5340592431    1.1968541538
C        0.5841167967   -0.6991905476   -1.5853219354
C        0.5766709775    0.6089963184   -1.3570735302
H        0.5617259942    2.3616752732   -0.1478833657
H        0.2333020177    1.5737977917    1.9644839845
H        0.1859920207   -0.6314202011    2.7339173804
H        0.7068536001   -1.3412901058   -2.4465845780
H        0.7593168801    1.2779497212   -2.2065796570
