13   
Iteration 1 Energy -340.97576517
C       -2.2047186221    2.0118997027    0.8313568943
N       -2.4256734243    3.1474363419    0.6237192287
C        1.3532583886   -0.2051751116   -0.2043535557
C        0.1509643350    0.5674228687    0.1392225398
C       -0.9685481360    0.0592771101    0.7937363690
N       -2.0772102315    0.7287856358    1.1222914210
C        1.8071760368   -1.3955283885    0.6410766540
C        1.2839999533   -1.7048335004   -0.4941346263
H        2.1189666037    0.3803968901   -0.7167900255
H        0.1379584708    1.6194548507   -0.1414948940
H       -0.9810440474   -0.9892338593    1.0852440030
H        2.2384388791   -1.6555695174    1.5961860008
H        0.9394120329   -2.4235609083   -1.2225113162
13   
Iteration 0 Energy -340.97576517
C       -2.2040435865    2.0130979028    0.8307851316
N       -2.4245985400    3.1486855653    0.6230032374
C        1.3533194231   -0.2052469768   -0.2043911334
C        0.1512057953    0.5677378426    0.1389492792
C       -0.9685219317    0.0600652490    0.7934635441
N       -2.0769857946    0.7299735798    1.1218694325
C        1.8068119580   -1.3955910701    0.6412792651
C        1.2836921386   -1.7049318529   -0.4939479689
H        2.1192449017    0.3800362798   -0.7168326379
H        0.1385434121    1.6197329302   -0.1419242830
H       -0.9813759872   -0.9883974586    1.0851252349
H        2.2378892480   -1.6555987920    1.5964814088
H        0.9389979806   -2.4236792754   -1.2222546228
13   
Iteration 134 Energy -340.97576517
C       -2.2040480158    2.0130722506    0.8307122455
N       -2.4246188218    3.1486296586    0.6227831874
C        1.3533270954   -0.2052264183   -0.2043492378
C        0.1512077847    0.5677417704    0.1389953838
C       -0.9684883240    0.0600754279    0.7935683701
N       -2.0769594959    0.7299869210    1.1219528280
C        1.8067902546   -1.3956354344    0.6412463464
C        1.2836707611   -1.7048874861   -0.4940060112
H        2.1192662352    0.3800753631   -0.7167493968
H        0.1385065573    1.6197215986   -0.1419257411
H       -0.9813030543   -0.9883655170    1.0853159514
H        2.2378588489   -1.6557287441    1.5964294161
H        0.9389691919   -2.4235754664   -1.2223674541
13   
Iteration 133 Energy -340.97576517
C       -2.2035923217    2.0134758166    0.8312203951
N       -2.4228670934    3.1495166677    0.6245598182
C        1.3529133571   -0.2054196796   -0.2046433117
C        0.1506982459    0.5673566164    0.1389477342
C       -0.9695200787    0.0596146884    0.7925151534
N       -2.0777287729    0.7299460373    1.1210314929
C        1.8075952245   -1.3950196071    0.6415100682
C        1.2840350551   -1.7052209357   -0.4932879740
H        2.1183182993    0.3800466924   -0.7176688489
H        0.1384127507    1.6195852635   -0.1411904943
H       -0.9831646953   -0.9891374449    1.0830925357
H        2.2394898932   -1.6542077547    1.5965570606
H        0.9395891534   -2.4246524365   -1.2210377416
13   
Iteration 132 Energy -340.97576506
C       -2.2041979625    2.0129532053    0.8311366177
N       -2.4253526789    3.1485131305    0.6238437334
C        1.3535263100   -0.2052263830   -0.2046064877
C        0.1515111087    0.5679864913    0.1384574066
C       -0.9681210070    0.0601956067    0.7930971167
N       -2.0766762870    0.7297657131    1.1217537283
C        1.8064231373   -1.3955021260    0.6414647865
C        1.2835527446   -1.7050260689   -0.4938174116
H        2.1197095676    0.3797199600   -0.7170315106
H        0.1388671405    1.6199628287   -0.1423854005
H       -0.9807102774   -0.9882815429    1.0847253961
H        2.2369809760   -1.6553490937    1.5969501692
H        0.9386662452   -2.4238277976   -1.2219822563
13   
Iteration 131 Energy -340.97576507
C       -2.2047071681    2.0126681025    0.8290671618
N       -2.4266989021    3.1473088659    0.6176743523
C        1.3537216107   -0.2049616968   -0.2033436961
C        0.1515685078    0.5679406713    0.1400389335
C       -0.9672797304    0.0608002893    0.7964585570
N       -2.0760654974    0.7305957443    1.1240489744
C        1.8059785918   -1.3970941723    0.6403235761
C        1.2833737244   -1.7041244000   -0.4957696888
H        2.1202002771    0.3807558206   -0.7144621399
H        0.1380379948    1.6194439305   -0.1426306403
H       -0.9790308487   -0.9869621929    1.0906360028
H        2.2363945043   -1.6592494517    1.5952430116
H        0.9386859532   -2.4212375871   -1.2256785167
13   
Iteration 130 Energy -340.97576425
C       -2.2061775874    2.0118294510    0.8262554778
N       -2.4312636832    3.1446923451    0.6086928214
C        1.3546178216   -0.2045050854   -0.2015977248
C        0.1525054092    0.5685061405    0.1416965079
C       -0.9647091775    0.0623617070    0.8016605278
N       -2.0742018650    0.7316339420    1.1278715625
C        1.8041921373   -1.3998104207    0.6386808440
C        1.2827514485   -1.7028070066   -0.4990301411
H        2.1222949022    0.3817919802   -0.7102466102
H        0.1375063254    1.6190905282   -0.1443186566
H       -0.9743168538   -0.9841866497    1.1003658151
H        2.2330197927   -1.6656982657    1.5932952689
H        0.9379603474   -2.4170147423   -1.2317198048
13   
Iteration 129 Energy -340.97576281
C       -2.2073842576    2.0110075488    0.8234115365
N       -2.4352000916    3.1421641042    0.5998825591
C        1.3553746443   -0.2040341519   -0.1998642651
C        0.1532595263    0.5689631599    0.1434327442
C       -0.9624323855    0.0637042838    0.8066513563
N       -2.0725206248    0.7326627627    1.1315066212
C        1.8026141824   -1.4023536136    0.6371024410
C        1.2821166571   -1.7014476473   -0.5020678740
H        2.1240902952    0.3828302753   -0.7062858364
H        0.1368119944    1.6186833815   -0.1455963154
H       -0.9700403373   -0.9815448212    1.1096034529
H        2.2301816387   -1.6718877307    1.5912724577
H        0.9373077756   -2.4128636279   -1.2374429904
13   
Iteration 128 Energy -340.97576075
C       -2.2086873639    2.0102197675    0.8207459301
N       -2.4391619934    3.1396742901    0.5914278670
C        1.3561462294   -0.2036223076   -0.1981950014
C        0.1540637695    0.5694399616    0.1450868881
C       -0.9601566037    0.0651600759    0.8114926828
N       -2.0708803793    0.7336927484    1.1350279529
C        1.8010546595   -1.4048524837    0.6355356322
C        1.2815456093   -1.7001841154   -0.5050796306
H        2.1259043124    0.3838433559   -0.7023368840
H        0.1362677997    1.6183039094   -0.1470399910
H       -0.9658880176   -0.9790295870    1.1186214231
H        2.2273033974   -1.6778492860    1.5893200077
H        0.9366675979   -2.4089124054   -1.2430009891
13   
Iteration 127 Energy -340.97575814
C       -2.2098370139    2.0093896988    0.8180817667
N       -2.4429331119    3.1371630985    0.5831822614
C        1.3568660579   -0.2031997734   -0.1965679722
C        0.1547971400    0.5698914730    0.1467077746
C       -0.9579764293    0.0664588849    0.8161758545
N       -2.0692740282    0.7346737254    1.1384309836
C        1.7995249712   -1.4072381461    0.6340538570
C        1.2809147488   -1.6988893124   -0.5079058288
H        2.1276225834    0.3847409123   -0.6986273327
H        0.1356524239    1.6179196517   -0.1482201365
H       -0.9617724485   -0.9763747651    1.1272388188
H        2.2245645037   -1.6836822530    1.5873981349
H        0.9360296202   -2.4049692710   -1.2483422938
13   
Iteration 126 Energy -340.97575502
C       -2.2110452152    2.0086332629    0.8155687007
N       -2.4466023416    3.1347420982    0.5752314167
C        1.3575750615   -0.2028204477   -0.1949801038
C        0.1555523386    0.5703379403    0.1482817051
C       -0.9558612522    0.0678753415    0.8207116303
N       -2.0677469248    0.7356946755    1.1417203408
C        1.7980632762   -1.4095798254    0.6325628464
C        1.2803778127   -1.6976890156   -0.5107367920
H        2.1293016115    0.3856826410   -0.6948937835
H        0.1351500017    1.6175478699   -0.1495656269
H       -0.9579436633   -0.9740294049    1.1357506757
H        2.2219013575   -1.6892697682    1.5855029351
H        0.9354569548   -2.4012414439   -1.2535480569
13   
Iteration 125 Energy -340.97575149
C       -2.2121216569    2.0077814912    0.8131125709
N       -2.4501406003    3.1322581469    0.5675785894
C        1.3582604097   -0.2024410902   -0.1934733462
C        0.1562498648    0.5707819927    0.1497729501
C       -0.9537732130    0.0691084024    0.8250687050
N       -2.0662152910    0.7365956960    1.1449005808
C        1.7965770687   -1.4117869759    0.6311967570
C        1.2797386096   -1.6964478152   -0.5133318429
H        2.1309474047    0.3864589371   -0.6914349698
H        0.1345888460    1.6171914889   -0.1506871274
H       -0.9539864389   -0.9713978854    1.1436610606
H        2.2192509916   -1.6947066829    1.5837118149
H        0.9348030222   -2.3975117820   -1.2584698548
13   
Iteration 124 Energy -340.97574753
C       -2.2132201790    2.0071044622    0.8107074430
N       -2.4535212872    3.1299630713    0.5600856047
C        1.3588846104   -0.2020912840   -0.1919520255
C        0.1569378582    0.5711687714    0.1512720814
C       -0.9518691708    0.0704692325    0.8293151641
N       -2.0648210693    0.7376427176    1.1479545072
C        1.7952562541   -1.4139883566    0.6297584264
C        1.2792861555   -1.6953302500   -0.5160119635
H        2.1324463461    0.3873440817   -0.6879251486
H        0.1341110080    1.6168002604   -0.1518577323
H       -0.9505401424   -0.9692276398    1.1517937834
H        2.2168576587   -1.6999560892    1.5818489384
H        0.9343709750   -2.3940150539   -1.2633831910
13   
Iteration 123 Energy -340.97574301
C       -2.2143284391    2.0061602806    0.8084148264
N       -2.4570497587    3.1273526215    0.5526731765
C        1.3596071036   -0.2017502590   -0.1905029746
C        0.1576486359    0.5716558720    0.1526941687
C       -0.9496907973    0.0717487929    0.8336007565
N       -2.0632507270    0.7384917698    1.1511323790
C        1.7936539506   -1.4161446752    0.6284699156
C        1.2785716431   -1.6940675236   -0.5185131313
H        2.1341834697    0.3880376482   -0.6844795890
H        0.1335757695    1.6164684211   -0.1532012659
H       -0.9464666910   -0.9664921599    1.1593265171
H        2.2140520389   -1.7052699312    1.5801417594
H        0.9336728191   -2.3903069335   -1.2681506507
13   
Iteration 122 Energy -340.97573753
C       -2.2154307031    2.0053997310    0.8056407890
N       -2.4606891383    3.1247523265    0.5443659896
C        1.3602435625   -0.2013238967   -0.1888081286
C        0.1584020382    0.5720559771    0.1543180511
C       -0.9476787597    0.0731933191    0.8381994780
N       -2.0617347742    0.7396723245    1.1544191091
C        1.7922750608   -1.4185262154    0.6268299299
C        1.2781149962   -1.6928322043   -0.5214664740
H        2.1357417586    0.3890014655   -0.6806895380
H        0.1330478362    1.6160209616   -0.1541551620
H       -0.9427151028   -0.9640734030    1.1684537234
H        2.2114496268   -1.7110400241    1.5780299292
H        0.9331526160   -2.3864164381   -1.2735318090
13   
Iteration 121 Energy -340.97573114
C       -2.2167801328    2.0044284852    0.8031764597
N       -2.4646736338    3.1218238060    0.5360282088
C        1.3610369267   -0.2010676237   -0.1871258306
C        0.1591140725    0.5725402281    0.1560199714
C       -0.9452728638    0.0748007922    0.8431833701
N       -2.0600124737    0.7408316872    1.1580938034
C        1.7904459029   -1.4210553685    0.6253967361
C        1.2773565503   -1.6914142013   -0.5243045322
H        2.1376704289    0.3897553851   -0.6766443545
H        0.1323713972    1.6155091078   -0.1560534865
H       -0.9383455061   -0.9608906939    1.1768919032
H        2.2085025586   -1.7171269272    1.5759769616
H        0.9327657906   -2.3822507535   -1.2790333227
13   
Iteration 120 Energy -340.97572492
C       -2.2177145999    2.0033507390    0.8006210909
N       -2.4681599266    3.1189778773    0.5285838009
C        1.3617604922   -0.2004874185   -0.1856910434
C        0.1600725678    0.5731420132    0.1572103597
C       -0.9430932078    0.0760963364    0.8471110364
N       -2.0583898166    0.7415736881    1.1610269973
C        1.7889131759   -1.4230583985    0.6239007518
C        1.2767441301   -1.6902035316   -0.5269857939
H        2.1394065683    0.3905734749   -0.6732866545
H        0.1321255330    1.6153888536   -0.1567620642
H       -0.9342233913   -0.9586972944    1.1852282352
H        2.2052137851   -1.7221878940    1.5743276573
H        0.9315237071   -2.3785845217   -1.2836784859
13   
Iteration 119 Energy -340.97571761
C       -2.2189729276    2.0027536068    0.7981105940
N       -2.4717351761    3.1164438015    0.5202432433
C        1.3623020525   -0.2004057759   -0.1839099957
C        0.1604670480    0.5733448889    0.1591248138
C       -0.9411973132    0.0776313547    0.8521489720
N       -2.0569779878    0.7431017410    1.1645917728
C        1.7874627503   -1.4256439538    0.6224557912
C        1.2762213574   -1.6888796008   -0.5297278289
H        2.1408414890    0.3913056727   -0.6693318314
H        0.1311938583    1.6145475507   -0.1583565977
H       -0.9306916199   -0.9554382150    1.1935946166
H        2.2033432095   -1.7283335700    1.5719337188
H        0.9319222768   -2.3745435772   -1.2892713811
13   
Iteration 118 Energy -340.97570761
C       -2.2204221115    2.0013857721    0.7949165594
N       -2.4765955492    3.1125714850    0.5103209845
C        1.3633322912   -0.1998406299   -0.1819286848
C        0.1616508389    0.5740667823    0.1609009112
C       -0.9382375076    0.0796429347    0.8577107571
N       -2.0548116722    0.7443597483    1.1687268366
C        1.7853322332   -1.4284991158    0.6204811482
C        1.2754421998   -1.6872420415   -0.5333586969
H        2.1432523069    0.3923523746   -0.6645367600
H        0.1307848902    1.6141987302   -0.1600721941
H       -0.9253381557   -0.9521847371    1.2045039222
H        2.1990784985   -1.7352985650    1.5695848170
H        0.9307107549   -2.3696288142   -1.2956437128
13   
Iteration 117 Energy -340.97569776
C       -2.2217445247    1.9998815352    0.7922541222
N       -2.4805780669    3.1088723740    0.5014729847
C        1.3641169981   -0.1993998061   -0.1802396684
C        0.1625286542    0.5748736045    0.1624016971
C       -0.9353602899    0.0812651297    0.8627992036
N       -2.0527751371    0.7452919179    1.1726399088
C        1.7828223783   -1.4309936389    0.6191160923
C        1.2742355162   -1.6855374235   -0.5362057052
H        2.1454702269    0.3929143989   -0.6604016829
H        0.1300919774    1.6138796611   -0.1618677402
H       -0.9198718451   -0.9486338561    1.2134776610
H        2.1952011887   -1.7416370000    1.5675740398
H        0.9300419412   -2.3648929730   -1.3014150251
13   
Iteration 116 Energy -340.97568299
C       -2.2234311433    1.9992324671    0.7878770009
N       -2.4865449948    3.1049338754    0.4886246606
C        1.3650654100   -0.1991124145   -0.1773668406
C        0.1634753336    0.5749581271    0.1653081168
C       -0.9328670970    0.0837881601    0.8700758924
N       -2.0507282699    0.7479428815    1.1775488948
C        1.7815812924   -1.4349242420    0.6162119657
C        1.2741738782   -1.6838162009   -0.5409085704
H        2.1474639652    0.3944257114   -0.6543141018
H        0.1292037953    1.6125911114   -0.1630702172
H       -0.9152955302   -0.9442500647    1.2276484886
H        2.1923669292   -1.7508712548    1.5636391281
H        0.9297154486   -2.3590142334   -1.3096685301
13   
Iteration 115 Energy -340.97565959
C       -2.2260867399    1.9962017631    0.7828278993
N       -2.4945313310    3.0973554332    0.4717230475
C        1.3667387056   -0.1982806370   -0.1740660641
C        0.1653656284    0.5765778558    0.1682357040
C       -0.9271655883    0.0873780066    0.8799056541
N       -2.0467171705    0.7499304383    1.1850895270
C        1.7766304033   -1.4397826264    0.6133984850
C        1.2719703381   -1.6805490102   -0.5466471205
H        2.1519697961    0.3955633957   -0.6460074665
H        0.1281636386    1.6120067963   -0.1670773995
H       -0.9048390614   -0.9375700387    1.2453100089
H        2.1843561930   -1.7630015986    1.5596899587
H        0.9283242053   -2.3499458543   -1.3207763463
13   
Iteration 114 Energy -340.97563261
C       -2.2285271268    1.9941558761    0.7768993093
N       -2.5028884540    3.0903556425    0.4537183832
C        1.3682065678   -0.1976850812   -0.1702355055
C        0.1670222771    0.5773893750    0.1718533321
C       -0.9226111621    0.0909932275    0.8900611063
N       -2.0432413197    0.7529855769    1.1922911057
C        1.7734479181   -1.4450697629    0.6097242344
C        1.2708814340   -1.6776272414   -0.5529246133
H        2.1555391766    0.3971366745   -0.6374511662
H        0.1269961609    1.6106720170   -0.1693070482
H       -0.8962774793   -0.9305505328    1.2646244765
H        2.1784528569   -1.7759262988    1.5545883568
H        0.9271781679   -2.3409455486   -1.3322360835
13   
Iteration 113 Energy -340.97560341
C       -2.2310648359    1.9915414496    0.7716968718
N       -2.5107447417    3.0828941488    0.4368650205
C        1.3697156896   -0.1970689843   -0.1667542618
C        0.1687346155    0.5786338960    0.1751234858
C       -0.9175280598    0.0947892258    0.8998666537
N       -2.0395865774    0.7556271076    1.1995292203
C        1.7691972426   -1.4500050115    0.6066067983
C        1.2691598953   -1.6745260262   -0.5587466525
H        2.1595346528    0.3983026117   -0.6291126196
H        0.1259457874    1.6096893886   -0.1728007136
H       -0.8870422304   -0.9238158102    1.2825257095
H        2.1715536207   -1.7880796634    1.5500454916
H        0.9263039586   -2.3320984087   -1.3432391162
13   
Iteration 112 Energy -340.97557249
C       -2.2333450869    1.9892284133    0.7662895143
N       -2.5184433627    3.0756701474    0.4202538341
C        1.3710980587   -0.1965456057   -0.1632170207
C        0.1703612056    0.5795680683    0.1783924903
C       -0.9130243646    0.0982981956    0.9092563097
N       -2.0362147124    0.7583834100    1.2062316155
C        1.7658391636   -1.4548323598    0.6032435809
C        1.2678766997   -1.6716553803   -0.5644654226
H        2.1630266292    0.3995314783   -0.6210802236
H        0.1249825844    1.6085343313   -0.1750090929
H       -0.8785781853   -0.9167927786    1.3001512303
H        2.1655393943   -1.7999940812    1.5452828802
H        0.9250609937   -2.3235099149   -1.3537238077
13   
Iteration 111 Energy -340.97553958
C       -2.2356687829    1.9866979198    0.7613365371
N       -2.5257663718    3.0682801838    0.4043915498
C        1.3724714744   -0.1960134913   -0.1598849536
C        0.1719935706    0.5807170811    0.1815659814
C       -0.9083142323    0.1020438017    0.9184427942
N       -2.0328096708    0.7611030534    1.2129485523
C        1.7618687313   -1.4594510323    0.6002270711
C        1.2662647918   -1.6686708756   -0.5699213972
H        2.1667189032    0.4004901414   -0.6132183644
H        0.1239874558    1.6074991861   -0.1781195456
H       -0.8700414172   -0.9102680059    1.3170653661
H        2.1591432779   -1.8114633084    1.5407591779
H        0.9243312873   -2.3150807301   -1.3639868814
13   
Iteration 110 Energy -340.97550489
C       -2.2378431366    1.9842919535    0.7562262804
N       -2.5330595670    3.0609026774    0.3886189861
C        1.3737674893   -0.1956046751   -0.1564750963
C        0.1735491827    0.5816443100    0.1846929026
C       -0.9039581251    0.1055400532    0.9273931142
N       -2.0295697666    0.7638081265    1.2193040395
C        1.7585422968   -1.4640346470    0.5969821151
C        1.2649495812   -1.6658646455   -0.5753237525
H        2.1700515731    0.4015148118   -0.6054631911
H        0.1232136782    1.6063901747   -0.1802288232
H       -0.8618828230   -0.9031634201    1.3336792082
H        2.1532975254   -1.8227657854    1.5360684847
H        0.9231211090   -2.3067750102   -1.3738683801
13   
Iteration 109 Energy -340.97546800
C       -2.2400302741    1.9817073057    0.7514077944
N       -2.5400991774    3.0533385630    0.3733153477
C        1.3750852313   -0.1951054318   -0.1532352646
C        0.1751955066    0.5827839184    0.1877884600
C       -0.8993874062    0.1093118436    0.9361995545
N       -2.0262485608    0.7665900525    1.2257309556
C        1.7546421220   -1.4684560537    0.5940301984
C        1.2633432922   -1.6628706162   -0.5805546864
H        2.1736509675    0.4022883078   -0.5978486695
H        0.1222089604    1.6053060146   -0.1831367504
H       -0.8535966983   -0.8966482962    1.3500525690
H        2.1470068852   -1.8338931304    1.5315394971
H        0.9224081690   -2.2984685534   -1.3836831180
13   
Iteration 108 Energy -340.97542881
C       -2.2421855096    1.9791590885    0.7464532463
N       -2.5472394400    3.0456287359    0.3579096687
C        1.3763123806   -0.1948057787   -0.1498680696
C        0.1767089328    0.5837400443    0.1908611503
C       -0.8950383481    0.1129248038    0.9450189495
N       -2.0230392795    0.7693428638    1.2319586429
C        1.7511969940   -1.4729553960    0.5908226160
C        1.2619728073   -1.6600621869   -0.5858261572
H        2.1769103494    0.4031232744   -0.5901622407
H        0.1216278099    1.6042388763   -0.1852468698
H       -0.8454994899   -0.8892922783    1.3662162059
H        2.1411198649   -1.8449336537    1.5268028816
H        0.9213319455   -2.2902244696   -1.3933341361
13   
Iteration 107 Energy -340.97538711
C       -2.2442668978    1.9764773162    0.7416365680
N       -2.5542070576    3.0377098648    0.3427487695
C        1.3776683166   -0.1943167121   -0.1466049770
C        0.1784279643    0.5848571093    0.1939538817
C       -0.8905152710    0.1167705153    0.9536348900
N       -2.0197060797    0.7722540694    1.2382635659
C        1.7473562770   -1.4773087356    0.5878442177
C        1.2603428191   -1.6569515573   -0.5909559175
H        2.1805504062    0.4037938284   -0.5825361889
H        0.1205466927    1.6030109455   -0.1880713257
H       -0.8372906875   -0.8826096996    1.3824505771
H        2.1348334773   -1.8560443961    1.5221428481
H        0.9204390579   -2.2817586246   -1.4029010212
13   
Iteration 106 Energy -340.97534336
C       -2.2464651208    1.9737090263    0.7368751936
N       -2.5612123946    3.0296265851    0.3277831572
C        1.3787216106   -0.1941233255   -0.1434264876
C        0.1799081658    0.5859618896    0.1968950041
C       -0.8860500276    0.1205767478    0.9623832093
N       -2.0164891650    0.7749914275    1.2443845041
C        1.7435595044   -1.4816994284    0.5847174463
C        1.2589456444   -1.6542114606   -0.5961468585
H        2.1837219231    0.4043248892   -0.5750531079
H        0.1202170167    1.6021691130   -0.1900685463
H       -0.8290039485   -0.8749591961    1.3982089368
H        2.1285154592   -1.8667572416    1.5174934839
H        0.9198103495   -2.2737251025   -1.4124400474
13   
Iteration 105 Energy -340.97529705
C       -2.2482950607    1.9710864145    0.7320627428
N       -2.5680192535    3.0214851791    0.3127336827
C        1.3803459496   -0.1936257273   -0.1398809771
C        0.1816587143    0.5868194593    0.2000975568
C       -0.8818138641    0.1243059611    0.9706436041
N       -2.0131986365    0.7781255595    1.2505525169
C        1.7401551991   -1.4859883568    0.5816890642
C        1.2571943724   -1.6508549539   -0.6010197855
H        2.1874503493    0.4051163032   -0.5672284552
H        0.1189765235    1.6004586259   -0.1931471932
H       -0.8214081590   -0.8683389649    1.4140903051
H        2.1229479184   -1.8778747577    1.5125204457
H        0.9181849644   -2.2648308183   -1.4215076197
13   
Iteration 104 Energy -340.97524329
C       -2.2508978522    1.9676374934    0.7270102400
N       -2.5756756513    3.0120313178    0.2967492057
C        1.3810842828   -0.1934815806   -0.1369158434
C        0.1833711295    0.5884869609    0.2030524870
C       -0.8765082426    0.1289383613    0.9803150093
N       -2.0095689378    0.7810427368    1.2571870407
C        1.7352115784   -1.4906925214    0.5783621589
C        1.2557806117   -1.6480160496   -0.6068276511
H        2.1908739694    0.4051309673   -0.5594164037
H        0.1187709905    1.6001252700   -0.1948043672
H       -0.8114434745   -0.8594434407    1.4313151986
H        2.1146438234   -1.8893823403    1.5077103865
H        0.9185367899   -2.2564932513   -1.4321315737
13   
Iteration 103 Energy -340.97518045
C       -2.2529607070    1.9643374280    0.7212545470
N       -2.5838161984    3.0016395499    0.2785889342
C        1.3831913780   -0.1930237353   -0.1323515805
C        0.1853784962    0.5893206691    0.2069984866
C       -0.8715037587    0.1334125601    0.9902445939
N       -2.0055873984    0.7849774612    1.2646308920
C        1.7311912858   -1.4958484332    0.5745842058
C        1.2535010260   -1.6438522693   -0.6125759480
H        2.1953359313    0.4061196332   -0.5496845022
H        0.1176259721    1.5977954539   -0.1987454632
H       -0.8026010603   -0.8509371568    1.4501369733
H        2.1082520317   -1.9026603189    1.5013752228
H        0.9161720192   -2.2453969182   -1.4428504740
13   
Iteration 102 Energy -340.97511334
C       -2.2556767316    1.9603987795    0.7156233609
N       -2.5921258847    2.9906325715    0.2608941464
C        1.3841857845   -0.1927796747   -0.1289817622
C        0.1874708224    0.5911291689    0.2104080455
C       -0.8657141936    0.1387411562    1.0006931167
N       -2.0015327740    0.7885392846    1.2719081153
C        1.7257999004   -1.5009840594    0.5708738998
C        1.2518070149   -1.6403888441   -0.6188603788
H        2.1993661378    0.4060178911   -0.5409386033
H        0.1169814241    1.5970904768   -0.2006693382
H       -0.7917895816   -0.8411999058    1.4691957625
H        2.0991788936   -1.9155543027    1.4957500669
H        0.9162282050   -2.2357586182   -1.4542905438
13   
Iteration 101 Energy -340.97504347
C       -2.2578031793    1.9567492624    0.7100773411
N       -2.6001841810    2.9796180424    0.2432558104
C        1.3859389818   -0.1924912872   -0.1246645594
C        0.1893793242    0.5922062311    0.2140692466
C       -0.8604801772    0.1434488107    1.0106225615
N       -1.9975026099    0.7923801662    1.2791809431
C        1.7212687414   -1.5060215067    0.5671359342
C        1.2496021793   -1.6364156329   -0.6246026191
H        2.2036049400    0.4065806485   -0.5314136664
H        0.1163085993    1.5952050663   -0.2041842113
H       -0.7824415401   -0.8319124727    1.4875544880
H        2.0919742134   -1.9284439686    1.4895356051
H        0.9145137255   -2.2250194356   -1.4649609861
13   
Iteration 100 Energy -340.97497095
C       -2.2602792683    1.9528273353    0.7046295878
N       -2.6080318797    2.9684699198    0.2261992033
C        1.3871737673   -0.1922781309   -0.1212189297
C        0.1915353257    0.5938035017    0.2175911069
C       -0.8550263982    0.1487352612    1.0205495160
N       -1.9936092858    0.7961127486    1.2861832497
C        1.7161543988   -1.5109300183    0.5634491363
C        1.2478313494   -1.6327877006   -0.6305778015
H        2.2077094061    0.4064683047   -0.5227328606
H        0.1154967261    1.5940396905   -0.2064080127
H       -0.7723744574   -0.8224265488    1.5059379385
H        2.0834257554   -1.9408907123    1.4837618218
H        0.9141735780   -2.2152597272   -1.4757580683
13   
Iteration 99 Energy -340.97489508
C       -2.2623266701    1.9489639317    0.6992322942
N       -2.6158406055    2.9570199505    0.2090739703
C        1.3886141627   -0.1920578993   -0.1170452737
C        0.1933583786    0.5950531916    0.2210175681
C       -0.8497192298    0.1535526195    1.0302677955
N       -1.9895797570    0.7999228475    1.2931517166
C        1.7114151436   -1.5158265644    0.5597972742
C        1.2456516909   -1.6288778850   -0.6361656295
H        2.2117101541    0.4066850024   -0.5134433749
H        0.1150162873    1.5924931574   -0.2094535279
H       -0.7628312721   -0.8127904663    1.5237116691
H        2.0759580235   -1.9534788669    1.4775745477
H        0.9127527111   -2.2047750952   -1.4861131420
13   
Iteration 98 Energy -340.97481552
C       -2.2647290575    1.9448949271    0.6938577584
N       -2.6234418371    2.9454432985    0.1922798955
C        1.3900346571   -0.1919448284   -0.1135569739
C        0.1956158176    0.5965449699    0.2247509917
C       -0.8444106659    0.1589783401    1.0400560719
N       -1.9857887144    0.8038279693    1.3000678979
C        1.7063117597   -1.5206335939    0.5560253577
C        1.2438435825   -1.6251043132   -0.6420660989
H        2.2159076314    0.4064846055   -0.5047407714
H        0.1142196916    1.5909545036   -0.2118986726
H       -0.7531101250   -0.8030824357    1.5419028690
H        2.0674390581   -1.9656870827    1.4716106417
H        0.9122872194   -2.1947924363   -1.4966830792
13   
Iteration 97 Energy -340.97473110
C       -2.2666926116    1.9407235333    0.6883918253
N       -2.6311813045    2.9331983050    0.1750285119
C        1.3912509774   -0.1917374127   -0.1093441041
C        0.1974453922    0.5979831439    0.2280911338
C       -0.8389027559    0.1640147503    1.0497926116
N       -1.9816273931    0.8077551433    1.3069332972
C        1.7013347469   -1.5255487241    0.5523285552
C        1.2415561721   -1.6210566253   -0.6476247274
H        2.2198294899    0.4064211571   -0.4953447934
H        0.1138085661    1.5896862614   -0.2145438718
H       -0.7431885506   -0.7930017782    1.5596473222
H        2.0596737682   -1.9784028597    1.4651898051
H        0.9108725201   -2.1841509705   -1.5069396778
13   
Iteration 96 Energy -340.97464124
C       -2.2690692714    1.9363327773    0.6829253900
N       -2.6387684068    2.9207212729    0.1578999762
C        1.3928405561   -0.1917237740   -0.1057005984
C        0.1998225113    0.5994406852    0.2321333131