13   
IRC reactant Energy -340.97576517
C       -2.2040435865    2.0130979028    0.8307851316
N       -2.4245985400    3.1486855653    0.6230032374
C        1.3533194231   -0.2052469768   -0.2043911334
C        0.1512057953    0.5677378426    0.1389492792
C       -0.9685219317    0.0600652490    0.7934635441
N       -2.0769857946    0.7299735798    1.1218694325
C        1.8068119580   -1.3955910701    0.6412792651
C        1.2836921386   -1.7049318529   -0.4939479689
H        2.1192449017    0.3800362798   -0.7168326379
H        0.1385434121    1.6197329302   -0.1419242830
H       -0.9813759872   -0.9883974586    1.0851252349
H        2.2378892480   -1.6555987920    1.5964814088
H        0.9389979806   -2.4236792754   -1.2222546228
13   
IRC product Energy -340.96809908
C       -2.0302798463    0.2595637458   -0.0552344320
N       -2.4706721403   -0.0883917463   -1.0916272773
C        1.3122784458   -0.0021666484   -0.0152641930
C        0.7739834908    0.7595255482    1.1212926858
C       -0.5173143324    0.9605768057    1.6231202450
N       -1.7303102562    0.6962135836    1.1422144755
C        1.0725213098   -1.5184650821   -0.1282202765
C        0.5054661490   -0.7964284522   -1.0298032185
H        2.2997983207    0.3621701947   -0.3134763856
H        1.5454161500    1.2210190909    1.7382357990
H       -0.5581950936    1.4368137088    2.6028234363
H        1.3014110972   -2.4569126972    0.3516772300
H       -0.1299242773   -0.6876341279   -1.8941322011
