13   
Iteration 0 Energy -340.94414773
C       -2.3323049492    0.7480976921   -0.4898809451
N       -2.7157597809    1.1396881748   -1.5214826049
C        1.2199944791    0.1235942174   -0.3368484979
C        0.3223848181    0.9008569445    0.5267364907
C       -0.8530592090    0.3130587017    1.1913889410
N       -2.0537828887    0.2443697356    0.7267263121
C        1.5945050666   -1.3301209182   -0.0230918379
C        0.7652702553   -1.1726416099   -0.9999337561
H        1.9597121090    0.7408302764   -0.8529244872
H        0.5403807223    1.9496594446    0.7204220050
H       -0.7357163501   -0.1226126784    2.1894959598
H        2.1656385410   -1.9634514801    0.6402481673
H        0.1199420330   -1.5765885860   -1.7666409146
13   
Iteration 1 Energy -340.94417466
C       -2.3408919321    0.7544906237   -0.4828360832
N       -2.7267795674    1.1389054964   -1.5161574205
C        1.2233132462    0.1198144913   -0.3365240320
C        0.3199697892    0.8966786891    0.5221250547
C       -0.8555518871    0.3152620534    1.1920792807
N       -2.0595109802    0.2546874335    0.7348059867
C        1.5969770196   -1.3339841171   -0.0223170412
C        0.7753967647   -1.1753181094   -1.0053742143
H        1.9652880080    0.7381809121   -0.8472939614
H        0.5348246184    1.9469273504    0.7102206287
H       -0.7341981563   -0.1212047195    2.1895442465
H        2.1636372389   -1.9676739042    0.6447273389
H        0.1355961152   -1.5755014203   -1.7786667693
13   
Iteration 2 Energy -340.94423157
C       -2.3469288602    0.7508406169   -0.4745844785
N       -2.7374848947    1.1258989031   -1.5095910068
C        1.2284853875    0.1183657227   -0.3337048231
C        0.3194223653    0.8977716347    0.5162586238
C       -0.8523131474    0.3168420172    1.1932882087
N       -2.0595184078    0.2581421158    0.7445399512
C        1.5900702942   -1.3382270736   -0.0202468291
C        0.7817644778   -1.1721949028   -1.0130192134
H        1.9786016456    0.7344628592   -0.8351095323
H        0.5274529616    1.9511287883    0.6941778681
H       -0.7244496192   -0.1185179922    2.1904700783
H        2.1441710570   -1.9773573095    0.6522201859
H        0.1484250441   -1.5637670193   -1.7959360742
13   
Iteration 3 Energy -340.94430091
C       -2.3468762766    0.7355230938   -0.4693040368
N       -2.7403673707    1.0969845081   -1.5080429801
C        1.2337524791    0.1188505814   -0.3291569488
C        0.3213693352    0.9018153797    0.5135738665
C       -0.8463969198    0.3219025086    1.1981727797
N       -2.0550285378    0.2564515989    0.7541647357
C        1.5758195039   -1.3431445930   -0.0219076188
C        0.7818270209   -1.1627060275   -1.0236087052
H        1.9951590863    0.7307438220   -0.8184816351
H        0.5239069645    1.9579729437    0.6807857184
H       -0.7137666950   -0.1048811755    2.1984525890
H        2.1136339211   -1.9928071775    0.6537587514
H        0.1533077078   -1.5409381169   -1.8168393369
13   
Iteration 4 Energy -340.94437950
C       -2.3437523590    0.7116644688   -0.4636092729
N       -2.7397047049    1.0545193687   -1.5077178259
C        1.2397055541    0.1202580131   -0.3226173506
C        0.3249622754    0.9083639165    0.5124209685
C       -0.8382816270    0.3309089783    1.2066939086
N       -2.0475879457    0.2527793793    0.7665332045
C        1.5543131751   -1.3492842990   -0.0268327335
C        0.7780777053   -1.1474191078   -1.0382409115
H        2.0161504919    0.7258376923   -0.7958309054
H        0.5211048973    1.9679235690    0.6649457540
H       -0.7008793964   -0.0812987068    2.2124466767
H        2.0705761757   -2.0144438725    0.6506647406
H        0.1543169191   -1.5065333588   -1.8439361658
13   
Iteration 5 Energy -340.94444637
C       -2.3399388868    0.6876506958   -0.4560001668
N       -2.7381568224    1.0106152389   -1.5055857711
C        1.2452594220    0.1234252501   -0.3152659952
C        0.3288357479    0.9170152656    0.5125313442
C       -0.8296711423    0.3426073943    1.2171635789
N       -2.0394511181    0.2504318856    0.7809575559
C        1.5312179583   -1.3534609317   -0.0329550610
C        0.7730751959   -1.1289272026   -1.0532180201
H        2.0368190354    0.7220832687   -0.7719133686
H        0.5170581284    1.9803939006    0.6472531883
H       -0.6874074461   -0.0536825239    2.2286330656
H        2.0252802716   -2.0349029874    0.6450166001
H        0.1536943151   -1.4676781084   -1.8709348657
13   
Iteration 6 Energy -340.94449653
C       -2.3340002879    0.6656812746   -0.4454100326
N       -2.7338886703    0.9671703963   -1.5007493980
C        1.2515372011    0.1299315712   -0.3050702405
C        0.3342244379    0.9293949271    0.5160248966
C       -0.8197591212    0.3588501348    1.2310592707
N       -2.0297065928    0.2517673146    0.7985792548
C        1.5078616639   -1.3538597448   -0.0375109110
C        0.7683807506   -1.1059432370   -1.0659896543
H        2.0581626227    0.7209750483   -0.7449616063
H        0.5131861520    1.9967617022    0.6301102310
H       -0.6730572808   -0.0202678260    2.2484616086
H        1.9793156475   -2.0518610321    0.6398057777
H        0.1531997146   -1.4234096443   -1.8952425553
13   
Iteration 7 Energy -340.94452566
C       -2.3211442297    0.6533650722   -0.4303686650
N       -2.7200112295    0.9334435602   -1.4919912100
C        1.2624434780    0.1386345086   -0.2854309411
C        0.3453392668    0.9464334775    0.5278346455
C       -0.8066283872    0.3829293064    1.2515619763
N       -2.0161467664    0.2631329858    0.8210247481
C        1.4858960666   -1.3516105949   -0.0319624732
C        0.7674122388   -1.0796953347   -1.0692033065
H        2.0854231457    0.7197906867   -0.7079042043
H        0.5162676096    2.0172739030    0.6194523101
H       -0.6581186575    0.0214784665    2.2751098737
H        1.9328179418   -2.0662580986    0.6447056621
H        0.1571116331   -1.3751011752   -1.9100375007
13   
Iteration 8 Energy -340.94453276
C       -2.2483430632    0.7227594673   -0.3911577006
N       -2.6238896301    0.9876946410   -1.4650992411
C        1.3160768100    0.1296011649   -0.1937069383
C        0.4119107825    0.9758749189    0.5949503216
C       -0.7622365469    0.4560089592    1.3155950873
N       -1.9691212831    0.3546028367    0.8727992724
C        1.4627154835   -1.3693018703    0.0569951220
C        0.7880048889   -1.0616987473   -0.9994867990
H        2.1755837477    0.6746542930   -0.5909289293
H        0.6036107086    2.0451850042    0.6597946272
H       -0.6343338587    0.1139737511    2.3485430360
H        1.8563675891   -2.1069616851    0.7420648592
H        0.1872434685   -1.3241706884   -1.8578353735
13   
Iteration 9 Energy -340.94452952
C       -1.9446207514    1.0802525189   -0.1554988926
N       -2.2626040392    1.3618404398   -1.2437120848
C        1.4827538963   -0.0521530364    0.1339889272
C        0.7099192569    0.9529851728    0.8750367644
C       -0.5418026338    0.6480416054    1.5879506255
N       -1.7432758696    0.7185432282    1.1249013149
C        1.3720538821   -1.5467907625    0.4231236894
C        0.7857704134   -1.1616186076   -0.6603827566
H        2.4306529373    0.3326659175   -0.2497220264
H        1.0664907398    1.9807022608    0.9098215435
H       -0.4835823870    0.3271173354    2.6338762663
H        1.6195081232   -2.3204334587    1.1363271416
H        0.1719993460   -1.3446177652   -1.5300063630
13   
Iteration 10 Energy -340.94453183
C       -2.0756109615    0.9204686234   -0.2482894302
N       -2.4164324061    1.1971170058   -1.3308436344
C        1.4253413272    0.0372090212    0.0104207827
C        0.5844965559    0.9690228878    0.7726472065
C       -0.6384961822    0.5605181406    1.4836394410
N       -1.8436555528    0.5517200014    1.0249518624
C        1.4345192365   -1.4654467115    0.2794964334
C        0.8090886363   -1.1125645214   -0.7930535176
H        2.3366055562    0.4998359498   -0.3760038234
H        0.8645952449    2.0194069719    0.8247828205
H       -0.5530695709    0.2262458849    2.5234962503
H        1.7489413857   -2.2267264293    0.9795012731
H        0.2030326444   -1.3314093937   -1.6598309375
13   
Iteration 11 Energy -340.94453244
C       -2.0747633390    0.9229995801   -0.2481575876
N       -2.4141303666    1.2007267783   -1.3308955004
C        1.4241385639    0.0370987153    0.0092188670
C        0.5841712705    0.9678828083    0.7733767300
C       -0.6390043823    0.5592160689    1.4839878618
N       -1.8439847599    0.5524682621    1.0248509296
C        1.4368818345   -1.4655408638    0.2786926889
C        0.8075338552   -1.1140509859   -0.7920118846
H        2.3334215242    0.5011904279   -0.3799916594
H        0.8643336668    2.0181562597    0.8263611374
H       -0.5542554107    0.2235593540    2.5234567861
H        1.7549902935   -2.2259209297    0.9780237606
H        0.1993540198   -1.3343125445   -1.6569649574
13   
Iteration 12 Energy -340.94453289
C       -2.0984263355    0.9080481088   -0.1834841889
N       -2.4558709914    1.1852101121   -1.2605433665
C        1.3994266405    0.0045001777    0.0157402217
C        0.5777223112    0.9403816584    0.7932324152
C       -0.6354959407    0.5393856562    1.5250126093
N       -1.8479854958    0.5385475368    1.0861016530
C        1.4153452672   -1.4969439214    0.2926704527
C        0.7641369457   -1.1495701291   -0.7662352428
H        2.3011897121    0.4648847440   -0.3947417484
H        0.8642275212    1.9892362281    0.8400303453
H       -0.5352596029    0.2051406414    2.5635512516
H        1.7467822331   -2.2542383564    0.9891516774
H        0.1376707364   -1.3730992314   -1.6171976585
13   
Iteration 13 Energy -340.94453301
C       -2.1109895757    0.9524038500   -0.0791324347
N       -2.4985186142    1.2503474653   -1.1401026975
C        1.3626986759   -0.0592434752   -0.0158677245
C        0.5992794134    0.8963017476    0.7963970586
C       -0.5974575229    0.5270890593    1.5708142884
N       -1.8250091310    0.5658657780    1.1778179569
C        1.3435008003   -1.5622187484    0.2525080387
C        0.6639394924   -1.1887549341   -0.7793645807
H        2.2620581055    0.3763416700   -0.4575093426
H        0.9189432032    1.9357563397    0.8377831490
H       -0.4686291087    0.1823408536    2.6027449071
H        1.6778195955   -2.3335329762    0.9320166459
H       -0.0004293017   -1.3881827920   -1.6072680147
13   
Iteration 14 Energy -340.94453307
C       -2.0942973640    1.0038179069   -0.0261816954
N       -2.4971866946    1.3208416889   -1.0758482419
C        1.3572953313   -0.0830555503   -0.0459189801
C        0.6315750505    0.8790727366    0.7926821627
C       -0.5569462102    0.5271443992    1.5875038172
N       -1.7910880216    0.5971531920    1.2203286174
C        1.3117711809   -1.5882215608    0.2067483664
C        0.6190385322   -1.1890516485   -0.8065654375
H        2.2563593717    0.3383991693   -0.5016438590
H        0.9749943257    1.9106964658    0.8394648220
H       -0.4147881426    0.1682267364    2.6128332285
H        1.6437344216   -2.3738999901    0.8707761894
H       -0.0662827636   -1.3652396217   -1.6225731020
