13   
Climbing Image - Chain 6 Image 5 Energy  -340.9228200303 (+2.343 kcal/mol) RMSGrad 0.042 eV/Ang
C       -2.6466054180    0.3456741733   -0.8508295504
N       -1.6569654613    0.3743838258   -0.2097006679
C        0.7107897867   -0.3319555748   -0.2743925137
C       -0.4341303264    0.3586073502    0.5261486161
C       -0.6521446254   -0.3852747243    1.8516892177
N       -0.2734161732    0.0568700504    2.9570033145
C        0.7592495016   -0.2555284741   -1.7728198241
C        1.6248502009    0.4778987111   -1.1458091329
H        1.0931734167   -1.2193595338    0.2393834096
H       -0.1634980011    1.3942223478    0.7575993716
H       -1.1327310067   -1.3729939849    1.7709393934
H        0.3278832231   -0.6245590020   -2.6906673825
H        2.4435987926    1.1816158588   -1.1584510949
