13   
Iteration 0 Energy -340.92282003
C       -2.6466054180    0.3456741733   -0.8508295504
N       -1.6569654613    0.3743838258   -0.2097006679
C        0.7107897867   -0.3319555748   -0.2743925137
C       -0.4341303264    0.3586073502    0.5261486161
C       -0.6521446254   -0.3852747243    1.8516892177
N       -0.2734161732    0.0568700504    2.9570033145
C        0.7592495016   -0.2555284741   -1.7728198241
C        1.6248502009    0.4778987111   -1.1458091329
H        1.0931734167   -1.2193595338    0.2393834096
H       -0.1634980011    1.3942223478    0.7575993716
H       -1.1327310067   -1.3729939849    1.7709393934
H        0.3278832231   -0.6245590020   -2.6906673825
H        2.4435987926    1.1816158588   -1.1584510949
13   
Iteration 1 Energy -340.92286615
C       -2.6336974832    0.3480003973   -0.8599183489
N       -1.6479479626    0.3720458788   -0.2128591203
C        0.7151394083   -0.3341152722   -0.2725348316
C       -0.4290761412    0.3547164688    0.5288851606
C       -0.6563515778   -0.3854106676    1.8553423437
N       -0.2826794868    0.0590828694    2.9606249163
C        0.7541538402   -0.2554893912   -1.7701746876
C        1.6217887487    0.4794883970   -1.1477179729
H        1.1028074096   -1.2204379793    0.2388719792
H       -0.1572298601    1.3894521814    0.7609585911
H       -1.1404661579   -1.3713613419    1.7745586357
H        0.3162868896   -0.6249257912   -2.6847333218
H        2.4379189290    1.1862178827   -1.1633465883
13   
Iteration 2 Energy -340.92289934
C       -2.6158020531    0.3587832545   -0.8677587415
N       -1.6353409374    0.3719498496   -0.2124742402
C        0.7242084210   -0.3347114399   -0.2663019357
C       -0.4203364461    0.3520596070    0.5358693280
C       -0.6573977188   -0.3850222977    1.8622185800
N       -0.2938551232    0.0637598287    2.9690198180
C        0.7462565890   -0.2590170599   -1.7644102943
C        1.6177865285    0.4805450199   -1.1535956698
H        1.1208070249   -1.2171140836    0.2446379619
H       -0.1488815857    1.3867631302    0.7680521649
H       -1.1447147496   -1.3693014807    1.7806266383
H        0.2948186644   -0.6314931827   -2.6710597128
H        2.4290710020    1.1925929864   -1.1782071509
13   
Iteration 3 Energy -340.92292345
C       -2.5928696936    0.3770617303   -0.7921652605
N       -1.6066434429    0.3823529561   -0.1454490135
C        0.7464399395   -0.3419539877   -0.2185952858
C       -0.3838639371    0.3595221906    0.5904864704
C       -0.6139627520   -0.3638508930    1.9254086802
N       -0.2764287588    0.1130581340    3.0286726657
C        0.7380337060   -0.2960129692   -1.7185177084
C        1.6224949668    0.4540119398   -1.1402323250
H        1.1516611610   -1.2157336456    0.3003358489
H       -0.1039564206    1.3946252750    0.8108839356
H       -1.0784747324   -1.3598710796    1.8545498698
H        0.2537985375   -0.6716452978   -2.6067308823
H        2.4283442331    1.1705745064   -1.1945761495
13   
Iteration 4 Energy -340.92292559
C       -2.5824284747    0.3936415700   -0.5736645352
N       -1.5896129783    0.4456725480    0.0607989368
C        0.7492415893   -0.3228644181    0.0479317175
C       -0.3608659749    0.4780363282    0.7870246852
C       -0.5930401058   -0.0990704458    2.1910712353
N       -0.2933525808    0.5108658359    3.2382520122
C        0.7458684175   -0.4023525173   -1.4506932585
C        1.6526392834    0.3649782120   -0.9330994697
H        1.1242440533   -1.1638348097    0.6390814051
H       -0.0624890701    1.5255084157    0.8971302200
H       -1.0277081025   -1.1103234004    2.2253902201
H        0.2474773671   -0.8303621490   -2.3068162087
H        2.4805237942    1.0493006955   -1.0432225651
13   
Iteration 5 Energy -340.92293752
C       -2.7108536830    0.3892616546   -0.4374095884
N       -1.7600827317    0.5691830071    0.2367889813
C        0.5617026456   -0.1961119656    0.5361061328
C       -0.5797946722    0.7445358144    1.0207103436
C       -0.9132909813    0.4696336211    2.4945640664
N       -0.6374606287    1.2627161350    3.4183114542
C        0.6568161349   -0.5774808862   -0.9120321604
C        1.5422364174    0.2733805109   -0.4982445632
H        0.8798903410   -0.9019011668    1.3091761814
H       -0.2698710925    1.7907543200    0.9326734155
H       -1.3984074307   -0.4972558484    2.7011120170
H        0.2080806149   -1.1684428383   -1.6955507512
H        2.3890725569    0.9161983908   -0.6866625539
13   
Iteration 6 Energy -340.92293311
C       -2.7054672967    0.3977798169   -0.4519522164
N       -1.7579350077    0.5768898626    0.2270359300
C        0.5613761729   -0.1908140258    0.5356101452
C       -0.5811050737    0.7505778499    1.0162341384
C       -0.9190998915    0.4743089287    2.4884981936
N       -0.6391425205    1.2634389417    3.4144755562
C        0.6555245103   -0.5801999593   -0.9105560553
C        1.5390604161    0.2754423181   -0.5026199047
H        0.8825934962   -0.8907296640    1.3127897352
H       -0.2695919358    1.7965532157    0.9312986861
H       -1.4095927867   -0.4904257853    2.6924807401
H        0.2095133311   -1.1780389581   -1.6904276509
H        2.3842124006    0.9191831799   -0.6953507940
13   
Iteration 7 Energy -340.92292710
C       -2.6949809027    0.4114701427   -0.4860783070
N       -1.7553042083    0.5884133335    0.2042892001
C        0.5574982404   -0.1876050446    0.5415737158
C       -0.5875645612    0.7585155924    1.0074122190
C       -0.9437449642    0.4844960625    2.4757704225
N       -0.6665312006    1.2705937951    3.4051444125
C        0.6586638263   -0.5925309278   -0.8998358569
C        1.5396898907    0.2680851952   -0.4969284164
H        0.8756495180   -0.8785329395    1.3279831755
H       -0.2712437573    1.8033021460    0.9254702934
H       -1.4442572174   -0.4762782889    2.6739933320
H        0.2170980494   -1.1995139342   -1.6751512124
H        2.3852435383    0.9103596228   -0.6927577097
13   
Iteration 8 Energy -340.92292300
C       -2.6736028993    0.4347832122   -0.5400989545
N       -1.7476748368    0.6092900284    0.1692003488
C        0.5492081606   -0.1869061096    0.5628076155
C       -0.5956841787    0.7754138224    0.9953909609
C       -0.9855120694    0.5189587298    2.4583559566
N       -0.7208791096    1.3114551849    3.3859638374
C        0.6656313731   -0.6220047026   -0.8686306551
C        1.5465842693    0.2418510699   -0.4725436328
H        0.8536199540   -0.8630274523    1.3673058514
H       -0.2670740907    1.8161797730    0.9104496919
H       -1.4990001706   -0.4352825478    2.6549407645
H        0.2303652817   -1.2423205404   -1.6369227241
H        2.3980490548    0.8753756016   -0.6712333281
13   
Iteration 9 Energy -340.92292194
C       -2.6906770997    0.4663941974   -0.5464262394
N       -1.7650463666    0.6293880876    0.1659881133
C        0.5226532071   -0.1913320729    0.5648776450
C       -0.6142738153    0.7811556144    0.9964744445
C       -1.0115441392    0.5241640776    2.4573647650
N       -0.7414696400    1.3109900311    3.3882285302
C        0.6320498170   -0.6349834202   -0.8645234700
C        1.5196494512    0.2253402060   -0.4756399002
H        0.8253046848   -0.8647770973    1.3722705959
H       -0.2749325366    1.8188433343    0.9160314841
H       -1.5357129203   -0.4251880033    2.6493629487
H        0.1908292734   -1.2566815300   -1.6282870078
H        2.3744568059    0.8524243451   -0.6803245201
13   
Iteration 10 Energy -340.92292192
C       -2.7097749084    0.4859602120   -0.5285978914
N       -1.7774738217    0.6408555953    0.1768925073
C        0.5092938689   -0.1930006486    0.5537232245
C       -0.6194866650    0.7827768255    0.9990250644
C       -1.0066214221    0.5202812798    2.4616657730
N       -0.7264031310    1.3015940146    3.3941706774
C        0.6041685264   -0.6320181966   -0.8781570804
C        1.4988259899    0.2231435779   -0.4940876694
H        0.8162402435   -0.8705546108    1.3560449598
H       -0.2756966544    1.8192052571    0.9212319643
H       -1.5331049408   -0.4279011700    2.6530955997
H        0.1537007872   -1.2491395973   -1.6402328088
H        2.3544873941    0.8472930324   -0.7041059713
13   
Iteration 11 Energy -340.92292192
C       -2.7326463671    0.5016686885   -0.4973394827
N       -1.7908165267    0.6496184814    0.1968949015
C        0.4987426365   -0.1918397739    0.5389089845
C       -0.6221225567    0.7833165653    1.0051266644
C       -0.9912594853    0.5116512261    2.4707505487
N       -0.6973110678    1.2859034661    3.4049137866
C        0.5740995613   -0.6220433303   -0.8968053519
C        1.4753773651    0.2289839924   -0.5190832424
H        0.8148004560   -0.8749853485    1.3329074293
H       -0.2769852874    1.8194997016    0.9300685097
H       -1.5175617995   -0.4365906667    2.6623827641
H        0.1125907684   -1.2335477551   -1.6567998498
H        2.3294979976    0.8527777825   -0.7363099930
