13   
Iteration 1 Energy -340.92654345
C       -3.0161968569   -0.3620122388   -0.3502134760
N       -1.9293811517   -0.0290863204   -0.0354790067
C        0.4319872996   -0.4069096893   -0.5360821142
C       -0.5981271038    0.3237528118    0.3413517459
C       -0.3801660940   -0.0332579193    1.8218401867
N        0.0918688673    0.7695316852    2.6531626120
C        1.0077745507    0.2480868647   -1.7600095621
C        1.8029846042    0.1718776828   -0.7391894904
H        0.2914363896   -1.4927539165   -0.5119163178
H       -0.4732394394    1.4046761741    0.2273728663
H       -0.6358963141   -1.0657825281    2.1065727250
H        0.8150633662    0.5302750953   -2.7840340541
H        2.7658567175    0.3445058445   -0.2824337680
