13   
Iteration 0 Energy -340.92654332
C       -3.0161968569   -0.3620122388   -0.3502134760
N       -1.9293811517   -0.0290863204   -0.0354790067
C        0.4319872996   -0.4069096893   -0.5360821142
C       -0.5981271038    0.3237528118    0.3413517459
C       -0.3801660940   -0.0332579193    1.8218401867
N        0.0918688673    0.7695316852    2.6531626120
C        1.0077745507    0.2480868647   -1.7600095621
C        1.8029846042    0.1718776828   -0.7391894904
H        0.2914363896   -1.4927539165   -0.5119163178
H       -0.4732394394    1.4046761741    0.2273728663
H       -0.6358963141   -1.0657825281    2.1065727250
H        0.8150633662    0.5302750953   -2.7840340541
H        2.7658567175    0.3445058445   -0.2824337680
13   
Iteration 1 Energy -340.92654333
C       -3.0160194447   -0.3616980970   -0.3503520321
N       -1.9292058305   -0.0288453638   -0.0355553666
C        0.4321373798   -0.4068933834   -0.5362136006
C       -0.5979294429    0.3238093325    0.3412689072
C       -0.3799042002   -0.0334661414    1.8217010767
N        0.0922304730    0.7691994842    2.6530840165
C        1.0077880045    0.2481565002   -1.7601766963
C        1.8031236248    0.1718765554   -0.7394512401
H        0.2915500582   -1.4927302676   -0.5120235842
H       -0.4728975794    1.4047299933    0.2274691776
H       -0.6356554644   -1.0660166142    2.1063201775
H        0.8150013056    0.5304817447   -2.7841502015
H        2.7660317832    0.3445027350   -0.2827697027
