13   
Iteration 0 Energy -340.96791661
C       -1.7104945160   -1.3578085495    0.0043123850
N       -2.3923983013   -1.4246920494   -0.9545742402
C        0.5797640439    1.0528976902   -0.3278284351
C        0.3969720968    0.6052561940    1.0590691946
C       -0.2222072361   -0.5148371407    1.6310880913
N       -1.0777993905   -1.4160891928    1.1503334954
C        1.2820941780    0.1335872859   -1.3524388714
C        0.0354360974    0.3675991310   -1.5728108013
H        0.8125538636    2.1186256031   -0.3889952542
H        0.9058973718    1.2324502704    1.7913218877
H        0.0273410101   -0.6970058477    2.6761143123
H        2.2321246742   -0.3259422762   -1.5733014944
H       -0.8692838918    0.2259588816   -2.1422902698
13   
Iteration 1 Energy -340.96752896
C       -1.6412438511   -1.3539815876   -0.0407230872
N       -2.2552568415   -1.4461665894   -1.0423175713
C        0.5798216392    1.0506091823   -0.3170940068
C        0.4113912853    0.6157554142    1.0755214503
C       -0.2315507851   -0.4914477297    1.6415223198
N       -1.0822273992   -1.3864375643    1.1439545124
C        1.2318937275    0.1079469166   -1.3493006399
C       -0.0131936121    0.3696099631   -1.5404450930
H        0.8365961217    2.1109433526   -0.3903944659
H        0.9465841889    1.2279893689    1.8018707170
H       -0.0061741613   -0.6705868941    2.6929694549
H        2.1644729666   -0.3776336317   -1.5896681493
H       -0.9360540947    0.2451405504   -2.0847180356
13   
Iteration 2 Energy -340.96782806
C       -1.6747799090   -1.3473483029   -0.0219416499
N       -2.3251298279   -1.4200986932   -1.0019724427
C        0.5767451544    1.0499876697   -0.3219558413
C        0.4045744492    0.6123112222    1.0693302900
C       -0.2229662144   -0.5043122619    1.6344496430
N       -1.0744991387   -1.4011813309    1.1415794408
C        1.2565524765    0.1190860064   -1.3474252879
C        0.0097540728    0.3608187226   -1.5532177054
H        0.8172452164    2.1142540767   -0.3922706639
H        0.9240222252    1.2345531358    1.7985835142
H        0.0157916635   -0.6889157519    2.6819535784
H        2.1998951263   -0.3503930096   -1.5774213982
H       -0.9041823746    0.2222786354   -2.1089879641
13   
Iteration 3 Energy -340.96799932
C       -1.6902568808   -1.3638843908   -0.0087367898
N       -2.3460847126   -1.4492235108   -0.9840550521
C        0.5834383369    1.0535690982   -0.3242849804
C        0.4033306328    0.6091184227    1.0641325114
C       -0.2280991353   -0.5040892390    1.6319854401
N       -1.0829317034   -1.4046698307    1.1515736176
C        1.2642562088    0.1263220188   -1.3519803213
C        0.0197134852    0.3742039843   -1.5623755981
H        0.8285048101    2.1173781959   -0.3871531556
H        0.9236384383    1.2282488957    1.7953819116
H        0.0127989401   -0.6831433135    2.6800111635
H        2.2068694371   -0.3454910628   -1.5803365951
H       -0.8919688827    0.2427419151   -2.1234311077
13   
Iteration 4 Energy -340.96805768
C       -1.6823960484   -1.3809220501   -0.0037971994
N       -2.3167555265   -1.4906566571   -0.9907573966
C        0.5896620386    1.0530185265   -0.3253256737
C        0.4036040556    0.6010446207    1.0604417479
C       -0.2378677334   -0.4981112076    1.6430392253
N       -1.0961542134   -1.3976500138    1.1680157697
C        1.2566313362    0.1280622718   -1.3609386561
C        0.0160763101    0.3952169978   -1.5700014542
H        0.8489320852    2.1145467585   -0.3769544145
H        0.9353074122    1.2132274317    1.7891587401
H       -0.0046665410   -0.6627722511    2.6955229815
H        2.1925649016   -0.3548016724   -1.5941659568
H       -0.8969066200    0.2823658652   -2.1328547814
13   
Iteration 5 Energy -340.96804340
C       -1.6717719401   -1.4080299769   -0.0080825722
N       -2.2798471151   -1.5557707847   -1.0065195849
C        0.6016150372    1.0560025313   -0.3216562151
C        0.4154361103    0.6049927093    1.0648804292
C       -0.2500634888   -0.4834219326    1.6388464616
N       -1.1110501207   -1.3861082097    1.1758230323
C        1.2419872030    0.1263129054   -1.3655903872
C        0.0057523703    0.4181575086   -1.5656221425
H        0.8799994981    2.1134675924   -0.3675106387
H        0.9629718426    1.2026891546    1.7943252960
H       -0.0334296011   -0.6360623913    2.6966384254
H        2.1665164078   -0.3736822471   -1.6086814019
H       -0.9125867110    0.3261248835   -2.1233122717
13   
Iteration 6 Energy -340.96809249
C       -1.6767440120   -1.3944209675   -0.0079697688
N       -2.2992577271   -1.5241882846   -1.0000901805
C        0.5981950725    1.0537382244   -0.3226552250
C        0.4131587987    0.6016898172    1.0638746729
C       -0.2440928204   -0.4909469971    1.6431296363
N       -1.1046080101   -1.3905337326    1.1705988599
C        1.2512055271    0.1292057559   -1.3663736020
C        0.0105421107    0.4053654290   -1.5662151602
H        0.8639741397    2.1137002651   -0.3705018177
H        0.9529161592    1.2070270586    1.7925760776
H       -0.0264553635   -0.6462578115    2.6999778693
H        2.1815103607   -0.3596266178   -1.6089059320
H       -0.9059348064    0.3001237908   -2.1242566810
13   
Iteration 7 Energy -340.96809620
C       -1.6743467899   -1.3936739608   -0.0089161408
N       -2.2954015386   -1.5244439482   -1.0019126212
C        0.5988075933    1.0525867175   -0.3220833903
C        0.4145003953    0.6004227106    1.0644886717
C       -0.2452228812   -0.4896935328    1.6447709480
N       -1.1056793005   -1.3882364466    1.1709254490
C        1.2508159591    0.1297683198   -1.3677297562
C        0.0097639962    0.4053542115   -1.5655710270
H        0.8638823803    2.1128249019   -0.3693407632
H        0.9548748645    1.2053481362    1.7929937460
H       -0.0288534404   -0.6450147651    2.7018317464
H        2.1809080461   -0.3584473403   -1.6125588067
H       -0.9069953222    0.2996442938   -2.1231950250
13   
Iteration 8 Energy -340.96809821
C       -1.6732373799   -1.3942937047   -0.0099143418
N       -2.2931216551   -1.5275857872   -1.0034343610
C        0.6009369015    1.0516544750   -0.3211938595
C        0.4176632340    0.5988359719    1.0653719385
C       -0.2467574620   -0.4881272812    1.6459993373
N       -1.1081675763   -1.3853007519    1.1712609371
C        1.2514298849    0.1315930056   -1.3698534553
C        0.0094965003    0.4060117962   -1.5643712159
H        0.8648303284    2.1122902849   -0.3674404824
H        0.9592834141    1.2027553416    1.7937689264
H       -0.0336692357   -0.6421537945    2.7038949989
H        2.1811895570   -0.3554503017   -1.6182856430
H       -0.9078062453    0.2993689340   -2.1209261102
13   
Iteration 9 Energy -340.96809844
C       -1.6735906314   -1.3939116027   -0.0097666296
N       -2.2935466740   -1.5270415885   -1.0032819938
C        0.6011559153    1.0515036839   -0.3210427334
C        0.4184861437    0.5984156715    1.0655416180
C       -0.2468234264   -0.4879834678    1.6461015706
N       -1.1088219947   -1.3846629082    1.1714973532
C        1.2520365181    0.1322471394   -1.3700547776
C        0.0099470655    0.4061075898   -1.5643911259
H        0.8644902916    2.1123207175   -0.3670469357
H        0.9606261913    1.2019610886    1.7938768725
H       -0.0339383504   -0.6420697326    2.7040410048
H        2.1819996348   -0.3542174813   -1.6188757021
H       -0.9072544014    0.2989962784   -2.1210342356
