13   
Climbing Image - Chain 58 Image 2 Energy  -340.8989547368 (+48.199 kcal/mol) RMSGrad 0.044 eV/Ang
C       -2.2111191539    1.2942832413    0.6569406417
N       -1.3334357850    2.0160953959    0.2481932119
C        1.0129717556    0.2756588555   -0.4385961172
C        0.0297044809    0.5384014170    0.6371751146
C       -1.0200530632   -0.4348679307    0.9943567436
N       -2.2626269411   -0.0503292887    1.0350068817
C        1.5358586759   -1.1297591523   -0.7350056486
C        0.6966394219   -0.6513506990   -1.5931426663
H        1.6798307480    1.1225252064   -0.6115653404
H        0.3695850824    1.1645998321    1.4630578204
H       -0.7934746497   -1.4784652851    1.2121485782
H        2.1834807567   -1.9180043105   -0.3800377195
H        0.1077330474   -0.7499205590   -2.4930708134
