13   
Iteration 0 Energy -340.92304722
C       -2.2231668493    1.1767689550    0.5481349774
N       -1.4272277982    1.9414322536    0.1131893503
C        1.0324136559    0.2921752944   -0.4074194027
C        0.0556471349    0.5177427191    0.6686523198
C       -0.9698930874   -0.4617769983    1.0599075940
N       -2.2332067508   -0.1285951822    1.0408998115
C        1.4768263472   -1.1202663527   -0.7569200911
C        0.7100542517   -0.5613698335   -1.6203944969
H        1.7341671199    1.1196748318   -0.5297969202
H        0.3258218883    1.2300654197    1.4477523647
H       -0.7049143340   -1.4691731544    1.3752818509
H        2.0458450965   -1.9630000064   -0.3807297041
H        0.1770425251   -0.5775560828   -2.5670983465
13   
Iteration 1 Energy -340.92271988
C       -2.2386227941    1.1747341641    0.5476278108
N       -1.4090623073    1.9246621082    0.1194989949
C        1.0342477399    0.2947882318   -0.4082949319
C        0.0556959024    0.5266222104    0.6683743761
C       -0.9702403103   -0.4576084556    1.0568972785
N       -2.2361426994   -0.1339336260    1.0370765460
C        1.4750894598   -1.1214070980   -0.7541256829
C        0.7072908551   -0.5593576285   -1.6195545935
H        1.7389071491    1.1191750284   -0.5326072133
H        0.3278489213    1.2374307436    1.4485232256
H       -0.7008916572   -1.4643183031    1.3707834188
H        2.0407144631   -1.9650235574   -0.3782700653
H        0.1738258887   -0.5743579857   -2.5639250921
13   
Iteration 2 Energy -340.92249489
C       -2.2476915744    1.1762465452    0.5430196023
N       -1.3744121796    1.9036670120    0.1320199910
C        1.0317396494    0.2983308419   -0.4089488596
C        0.0472961049    0.5396678536    0.6662369064
C       -0.9715926802   -0.4568128030    1.0534017111
N       -2.2340217721   -0.1386412261    1.0267583113
C        1.4762916137   -1.1231513617   -0.7503588266
C        0.7017907335   -0.5596599782   -1.6163725843
H        1.7377706345    1.1204739129   -0.5367003938
H        0.3226599227    1.2492866325    1.4469241678
H       -0.6989488227   -1.4632642458    1.3674216206
H        2.0411917163   -1.9665896949   -0.3804555836
H        0.1663737218   -0.5739822150   -2.5552535884
13   
Iteration 3 Energy -340.92290850
C       -2.2519550126    1.1615218918    0.5440245901
N       -1.3980478732    1.9036370549    0.1139478232
C        1.0381237752    0.2894263528   -0.4057909078
C        0.0351043822    0.5544019517    0.6497360385
C       -0.9633519977   -0.4579752971    1.0522549761
N       -2.2262661496   -0.1492801744    1.0309502209
C        1.4744095887   -1.1370820086   -0.7504111318
C        0.7039912716   -0.5634085869   -1.6161341223
H        1.7595328685    1.0992665514   -0.5260503643
H        0.3258211760    1.2525466160    1.4362075159
H       -0.6804794585   -1.4617658768    1.3674004844
H        2.0307873224   -1.9915640430   -0.3959549651
H        0.1674600171   -0.5654097442   -2.5526603119
13   
Iteration 4 Energy -340.92302398
C       -2.2521573165    1.1471087012    0.5496236346
N       -1.4069108512    1.8882258826    0.1042464087
C        1.0522202662    0.2669360012   -0.4128125928
C        0.0445841915    0.5508652493    0.6320290618
C       -0.9462235056   -0.4561770847    1.0647510816
N       -2.2117746435   -0.1554434504    1.0553123305
C        1.4499147122   -1.1672948991   -0.7720939383
C        0.7018231433   -0.5633709789   -1.6359949751
H        1.7981728440    1.0559793890   -0.5207263973
H        0.3385410718    1.2592188558    1.4084090568
H       -0.6541651047   -1.4536351631    1.3912979538
H        1.9846577793   -2.0397032826   -0.4278829242
H        0.1640277415   -0.5393388825   -2.5714933035
13   
Iteration 5 Energy -340.92306404
C       -2.2559884440    1.1451530470    0.5257986276
N       -1.4180507592    1.8722832832    0.0437427324
C        1.0626054942    0.2745385144   -0.4030020611
C        0.0435339127    0.5753461333    0.6262799071
C       -0.9344656199   -0.4308072263    1.0874096489
N       -2.2023714789   -0.1424589529    1.0694839610
C        1.4471289770   -1.1640294476   -0.7589427561
C        0.7146042214   -0.5516998481   -1.6300361024
H        1.8180301531    1.0551310942   -0.5053889397
H        0.3276943755    1.3061725733    1.3853322596
H       -0.6326825439   -1.4162353480    1.4405449672
H        1.9755530554   -2.0395949969   -0.4137391168
H        0.1796514754   -0.5208579608   -2.5665205310
13   
Iteration 6 Energy -340.92307114
C       -2.2628410808    1.1354094327    0.4971659474
N       -1.4310567565    1.8752601423    0.0243706354
C        1.0677532404    0.2830025796   -0.4035920633
C        0.0430491767    0.5964247040    0.6162906498
C       -0.9249291095   -0.4102318544    1.0983371325
N       -2.1964145852   -0.1380052994    1.0704675192
C        1.4398126495   -1.1601677470   -0.7522431897
C        0.7212487332   -0.5435482482   -1.6315826122
H        1.8308979627    1.0564682213   -0.5036122835
H        0.3184564827    1.3461020114    1.3601112413
H       -0.6113879583   -1.3830458801    1.4756586790
H        1.9600089747   -2.0387993741   -0.4018518125
H        0.1913087732   -0.5115187854   -2.5710802187
13   
Iteration 7 Energy -340.92308765
C       -2.2626771475    1.1360219723    0.4941171544
N       -1.4337865433    1.8640076373   -0.0018837867
C        1.0696716970    0.2839967340   -0.4046654112
C        0.0446328113    0.6004702567    0.6139547139
C       -0.9216069230   -0.4048650136    1.1016752808
N       -2.1933609406   -0.1337343301    1.0756321719
C        1.4359153075   -1.1604549514   -0.7543388287
C        0.7213745691   -0.5397240961   -1.6340539711
H        1.8359439859    1.0545179584   -0.5030760644
H        0.3185318992    1.3549380526    1.3534382303
H       -0.6063593544   -1.3753405115    1.4835896092
H        1.9521088110   -2.0416066423   -0.4045306822
H        0.1921872340   -0.5040656815   -2.5737180643
13   
Iteration 8 Energy -340.92309070
C       -2.2635338683    1.1445197702    0.4890531623
N       -1.4377309602    1.8695248081   -0.0170805083
C        1.0718768297    0.2867730052   -0.4128754933
C        0.0439232768    0.6157154409    0.5989024088
C       -0.9157938934   -0.3870561545    1.1032165442
N       -2.1887331720   -0.1203766592    1.0798448937
C        1.4303289172   -1.1617294106   -0.7526164338
C        0.7228120278   -0.5423079486   -1.6387655925
H        1.8430208653    1.0521695122   -0.5136343339
H        0.3136339581    1.3847924178    1.3246291835
H       -0.5949435832   -1.3522305320    1.4936429159
H        1.9398740178   -2.0438038108   -0.3954541572
H        0.1960845087   -0.5083426550   -2.5798933881
13   
Iteration 9 Energy -340.92308815
C       -2.2563517943    1.1548599301    0.4544191170
N       -1.4333009077    1.8737510617   -0.0644800527
C        1.0804208309    0.2996353905   -0.4221842672
C        0.0543440611    0.6404427109    0.5875587122
C       -0.9035356905   -0.3550096604    1.1108341756
N       -2.1770953154   -0.0932417519    1.0794046157
C        1.4255308836   -1.1521496915   -0.7606721254
C        0.7235590324   -0.5274119867   -1.6475451381
H        1.8581213373    1.0581122787   -0.5246246564
H        0.3236432648    1.4203262538    1.3020587409
H       -0.5805316931   -1.3102783770    1.5235054001
H        1.9273796748   -2.0385371868   -0.4031952797
H        0.1957964816   -0.4895543700   -2.5878981732
13   
Iteration 10 Energy -340.92308815
C       -2.2563517941    1.1548599303    0.4544191167
N       -1.4333009076    1.8737510619   -0.0644800531
C        1.0804208311    0.2996353907   -0.4221842673
C        0.0543440612    0.6404427113    0.5875587121
C       -0.9035356903   -0.3550096600    1.1108341757
N       -2.1770953152   -0.0932417516    1.0794046157
C        1.4255308836   -1.1521496913   -0.7606721255
C        0.7235590324   -0.5274119865   -1.6475451382
H        1.8581213375    1.0581122788   -0.5246246565
H        0.3236432649    1.4203262542    1.3020587406
H       -0.5805316929   -1.3102783765    1.5235054003
H        1.9273796747   -2.0385371867   -0.4031952798
H        0.1957964817   -0.4895543698   -2.5878981732
13   
Iteration 11 Energy -340.92308965
C       -2.2568372183    1.1550473947    0.4553247135
N       -1.4339519821    1.8748656792   -0.0623498122
C        1.0804916957    0.2995966220   -0.4223984435
C        0.0543575174    0.6410531255    0.5870820463
C       -0.9032607298   -0.3548869698    1.1098615326
N       -2.1770348021   -0.0938737704    1.0786090873
C        1.4253127074   -1.1524440533   -0.7602001929
C        0.7236859601   -0.5279219945   -1.6474527908
H        1.8583758063    1.0578687609   -0.5250386482
H        0.3235487183    1.4210763132    1.3014014237
H       -0.5797508282   -1.3101682020    1.5220888173
H        1.9268819523   -2.0387895284   -0.4022221150
H        0.1961146492   -0.4903375296   -2.5879323753
13   
Iteration 12 Energy -340.92309118
C       -2.2571416680    1.1566015648    0.4572486164
N       -1.4338474841    1.8762744343   -0.0600767512
C        1.0802240169    0.2996169914   -0.4230645305
C        0.0536791565    0.6412995158    0.5859634740
C       -0.9036491793   -0.3548247739    1.1085632783
N       -2.1774533483   -0.0937507061    1.0778888047
C        1.4258393169   -1.1526118703   -0.7595001856
C        0.7243015072   -0.5291530338   -1.6475485236
H        1.8577748138    1.0581789330   -0.5261124182
H        0.3228002855    1.4217069180    1.2998148031
H       -0.5798381176   -1.3102443721    1.5201799830
H        1.9276878690   -2.0383711666   -0.4004748726
H        0.1971270533   -0.4925666338   -2.5882899088
13   
Iteration 13 Energy -340.92309115
C       -2.2957119487    1.0880509880    0.3930239108
N       -1.4820552276    1.8153207147   -0.1291285658
C        1.0767061539    0.2857971948   -0.4327994063
C        0.0232604040    0.6196755128    0.5512225476
C       -0.9203970693   -0.3883732823    1.0756154676
N       -2.1988824493   -0.1517733231    1.0304820365
C        1.4748593570   -1.1625521260   -0.7260979946
C        0.7718977976   -0.5835255963   -1.6424773517
H        1.8323656371    1.0656206653   -0.5402814687
H        0.2622150761    1.4179055915    1.2559357547
H       -0.5832103163   -1.3326270279    1.5017718815
H        1.9984622902   -2.0218127774   -0.3351749178
H        0.2656494626   -0.5857659679   -2.5953744886
13   
Iteration 14 Energy -340.92309124
C       -2.2949862557    1.0879520515    0.3919460366
N       -1.4799996439    1.8145151648   -0.1294802547
C        1.0763822923    0.2862719884   -0.4325889779
C        0.0230961344    0.6200679407    0.5514055340
C       -0.9197978350   -0.3887137515    1.0753454222
N       -2.1982340612   -0.1521957845    1.0294201926
C        1.4741550935   -1.1621859972   -0.7256113560
C        0.7708815768   -0.5832239687   -1.6419551397
H        1.8320774627    1.0660077067   -0.5403819722
H        0.2617740677    1.4182417697    1.2563552266
H       -0.5822681794   -1.3329451482    1.5013179011
H        1.9976475246   -2.0215200801   -0.3347453510
H        0.2642374565   -0.5856850207   -2.5946226901
13   
Iteration 15 Energy -340.92309158
C       -2.2945490777    1.0877431432    0.3912782986
N       -1.4793169165    1.8142900114   -0.1297879978
C        1.0763200479    0.2865078367   -0.4324756818
C        0.0231126106    0.6202140571    0.5514962442
C       -0.9194793794   -0.3888638295    1.0752141452
N       -2.1978852490   -0.1525128481    1.0287734427
C        1.4737766736   -1.1620288205   -0.7253734040
C        0.7703389630   -0.5830956485   -1.6416562690
H        1.8320571582    1.0661789270   -0.5404408972
H        0.2616111383    1.4183661999    1.2565708066
H       -0.5817688533   -1.3330639462    1.5011339121
H        1.9971583226   -2.0214565723   -0.3345685499
H        0.2634265275   -0.5857039213   -2.5941825704
