13   
IRC product Energy -340.92257159
C       -2.4898781209    1.7611497574   -0.4004972911
N       -1.5986027853    1.1597653280    0.0822392021
C        0.7089228550    0.5241519384   -0.3495120414
C       -0.4867474427    0.4535099493    0.6246681080
C       -0.8524996568   -0.9851294324    0.9986266642
N       -1.9610265860   -1.5329105942    0.8249378294
C        1.7232654389   -0.5773840923   -0.4813614214
C        0.8884535063   -0.4612988345   -1.4671366390
H        1.0136018241    1.5657667448   -0.4961940748
H       -0.2025885170    0.9566987160    1.5606981394
H       -0.0315866092   -1.5490911471    1.4691547739
H        2.5792524840   -1.0596394542   -0.0327902362
H        0.5314394253   -0.7728938380   -2.4368617211
