13   
Iteration 0 Energy -340.92257159
C       -2.4898781209    1.7611497574   -0.4004972911
N       -1.5986027853    1.1597653280    0.0822392021
C        0.7089228550    0.5241519384   -0.3495120414
C       -0.4867474427    0.4535099493    0.6246681080
C       -0.8524996568   -0.9851294324    0.9986266642
N       -1.9610265860   -1.5329105942    0.8249378294
C        1.7232654389   -0.5773840923   -0.4813614214
C        0.8884535063   -0.4612988345   -1.4671366390
H        1.0136018241    1.5657667448   -0.4961940748
H       -0.2025885170    0.9566987160    1.5606981394
H       -0.0315866092   -1.5490911471    1.4691547739
H        2.5792524840   -1.0596394542   -0.0327902362
H        0.5314394253   -0.7728938380   -2.4368617211
13   
Iteration 1 Energy -340.92257160
C       -2.4896449353    1.7614034684   -0.4011499978
N       -1.5984943057    1.1599571093    0.0817392456
C        0.7090592143    0.5241913971   -0.3496069105
C       -0.4867873419    0.4536181357    0.6243615270
C       -0.8527056721   -0.9850051837    0.9982272570
N       -1.9612273031   -1.5327363463    0.8243471347
C        1.7233322014   -0.5774286400   -0.4812741155
C        0.8887257567   -0.4612568882   -1.4672129156
H        1.0138411369    1.5657840079   -0.4962250573
H       -0.2027606855    0.9567834525    1.5604439632
H       -0.0319074187   -1.5490235559    1.4688861732
H        2.5791904940   -1.0597623630   -0.0325440933
H        0.5318756094   -0.7728080354   -2.4370125823
