13   
IRC product Energy -340.92386470
C       -1.4140834250    1.5582097206    0.4443602954
N       -1.5935176528    2.7288144036    0.0846324774
C        0.7897943374    0.3887641344   -0.4228289588
C       -0.1688425138    0.6362849490    0.7313223224
C       -1.3027027298   -0.3304689713    0.9803101219
N       -2.3239514985    0.4340994268    0.7517635466
C        1.2948466466   -0.9943321209   -0.7522747040
C        0.4263826598   -0.5046367953   -1.5811029330
H        1.4403537214    1.2511481847   -0.6021718785
H        0.3647593816    0.9496703386    1.6379705635
H       -1.3512882842   -1.3776268172    1.2728454125
H        1.9607456812   -1.7923865221   -0.4578676422
H       -0.1594960754   -0.5914963129   -2.4840962547
