13   
Iteration 0 Energy -340.92386470
C       -1.4140834250    1.5582097206    0.4443602954
N       -1.5935176528    2.7288144036    0.0846324774
C        0.7897943374    0.3887641344   -0.4228289588
C       -0.1688425138    0.6362849490    0.7313223224
C       -1.3027027298   -0.3304689713    0.9803101219
N       -2.3239514985    0.4340994268    0.7517635466
C        1.2948466466   -0.9943321209   -0.7522747040
C        0.4263826598   -0.5046367953   -1.5811029330
H        1.4403537214    1.2511481847   -0.6021718785
H        0.3647593816    0.9496703386    1.6379705635
H       -1.3512882842   -1.3776268172    1.2728454125
H        1.9607456812   -1.7923865221   -0.4578676422
H       -0.1594960754   -0.5914963129   -2.4840962547
13   
Iteration 1 Energy -340.92386470
C       -1.4142227945    1.5584236798    0.4435440826
N       -1.5935620302    2.7289940368    0.0836575426
C        0.7898440287    0.3888691371   -0.4230176645
C       -0.1690576120    0.6365151740    0.7308867853
C       -1.3029851460   -0.3302024870    0.9797088684
N       -2.3241732348    0.4343532960    0.7508492163
C        1.2949589689   -0.9942650383   -0.7522077948
C        0.4266916685   -0.5046443739   -1.5812860984
H        1.4404533933    1.2512287723   -0.6022964328
H        0.3643374649    0.9499860422    1.6376271557
H       -1.3516489598   -1.3773304821    1.2723377629
H        1.9607819827   -1.7922963469   -0.4575665944
H       -0.1589788734   -0.5915887198   -2.4844062558
