13   
IRC reactant Energy -340.92496249
C       -2.2813955417    2.1010245773    0.4031216338
N       -1.5377788801    1.2133291261    0.6268508017
C        0.5744025579    0.2398730104   -0.1097275040
C       -0.6270072604    0.1345004060    0.8524805541
C       -1.3818865572   -1.1948887106    0.7085407917
N       -1.3511665014   -2.0910224454    1.5768478184
C        1.3272100278   -0.9735187870   -0.5749823059
C        0.5882021132   -0.3947426252   -1.4701848774
H        1.1036285970    1.1854264623    0.0500517814
H       -0.2672281668    0.2068452130    1.8845810601
H       -1.9574834921   -1.3238341110   -0.2206655067
H        2.0271539229   -1.7453158559   -0.2924265548
H        0.2248198800   -0.3298317550   -2.4848304120
