13   
Iteration 0 Energy -340.92496249
C       -2.2813955417    2.1010245773    0.4031216338
N       -1.5377788801    1.2133291261    0.6268508017
C        0.5744025579    0.2398730104   -0.1097275040
C       -0.6270072604    0.1345004060    0.8524805541
C       -1.3818865572   -1.1948887106    0.7085407917
N       -1.3511665014   -2.0910224454    1.5768478184
C        1.3272100278   -0.9735187870   -0.5749823059
C        0.5882021132   -0.3947426252   -1.4701848774
H        1.1036285970    1.1854264623    0.0500517814
H       -0.2672281668    0.2068452130    1.8845810601
H       -1.9574834921   -1.3238341110   -0.2206655067
H        2.0271539229   -1.7453158559   -0.2924265548
H        0.2248198800   -0.3298317550   -2.4848304120
13   
Iteration 1 Energy -340.92496249
C       -2.2811354919    2.1017164037    0.4026379202
N       -1.5375751571    1.2140109135    0.6265142875
C        0.5745605813    0.2403263328   -0.1098850269
C       -0.6268640043    0.1351711448    0.8523233645
C       -1.3818223675   -1.1941852658    0.7085358624
N       -1.3512207309   -2.0901979976    1.5769707901
C        1.3272784212   -0.9731960326   -0.5749409206
C        0.5883258120   -0.3945036259   -1.4702443273
H        1.1038511400    1.1858663468    0.0497536387
H       -0.2671016518    0.2076429272    1.8844201292
H       -1.9574081718   -1.3232055485   -0.2206656183
H        2.0271583270   -1.7450035814   -0.2922537812
H        0.2249593690   -0.3297254867   -2.4849062910
