13   
step_00 start
C       -2.1623498118    1.2331737636    0.4478117232
N       -1.0277598487    1.7408431255    0.2563693375
C        0.9230585135    0.3398814626   -0.4640444476
C       -0.0974065403    0.6340208119    0.6375718697
C       -1.0579855791   -0.4708195869    1.0159663219
N       -2.2948227801   -0.1056849117    0.9104923826
C        1.4855144592   -1.0400487540   -0.7048109529
C        0.6404325300   -0.6152437441   -1.5943715347
H        1.5487518628    1.2150181303   -0.6566270694
H        0.4387473050    0.9690153524    1.5398279186
H       -0.7831879089   -1.4657410646    1.3573841300
H        2.1669771315   -1.7989780091   -0.3512520415
H        0.1012344206   -0.7606377684   -2.5176285948
13   
step_00 end
C       -1.4259437385   -1.5028460548    0.0359853326
N       -2.1389405473   -1.6062501799   -0.8880650789
C        0.3158016886    1.3056252195   -0.1807310747
C        0.2015594320    0.8025596539    1.0790149693
C        0.0128649085   -0.5474016296    1.5822372287
N       -0.6704592942   -1.5532369474    1.1273917497
C        0.7626817262   -0.5771864719   -1.7880990205
C        0.4374742541    0.6725467032   -1.4960573649
H        0.3970660086    2.3909423638   -0.2285082205
H        0.3226675721    1.5260810552    1.8845245172
H        0.4798650096   -0.7399662160    2.5504324159
H        1.0185570357   -1.5135747292   -1.3141813299
H        0.2953557615    1.3598863369   -2.3330689905
