13   
Iteration 31 Energy -340.85555204
C       -3.3103324676   -0.0054119808   -0.9198162386
N       -2.3591615397    0.0667346110   -0.2234207053
C        1.0594528654   -0.2610842855   -0.2350866053
C        0.1806851915    0.5025202811    0.6800304485
C       -0.5035118556   -0.1563836897    1.8372488174
N        0.4987828359    0.4679227876    2.2265284720
C        0.8312636346   -0.1777537111   -1.7322897197
C        1.8589994119    0.4774525194   -1.3051497339
H        1.4568301658   -1.1857139222    0.1918194861
H       -0.1992693237    1.4586186942    0.3343493860
H       -1.3132385581   -0.7935504349    2.1702685104
H        0.1610055280   -0.5038517091   -2.5128626062
H        2.7084256923    1.1241817874   -1.4612834050
13   
Iteration 52 Energy -340.95303755
C       -2.9352544831   -0.1612746334   -0.4688514566
N       -1.8278157188    0.0890292144   -0.1584874476
C        0.5066590049   -0.4320546771   -0.6601820773
C       -0.4754354545    0.3634923242    0.2149861696
C       -0.2812426991    0.0012483422    1.6975047621
N        0.2305527005    0.7825639411    2.5264191430
C        1.0735951780    0.1651983616   -1.9193074134
C        1.8929186443    0.0914268017   -0.9151509575
H        0.3298573527   -1.5105473852   -0.6016677948
H       -0.2900564490    1.4347096419    0.0939001745
H       -0.5935049171   -1.0125231629    1.9933212041
H        0.8657506744    0.4188790932   -2.9471497608
H        2.8737157975    0.2391740890   -0.4904060565
