13   
IRC reactant Energy -340.92496247
C       -1.6943935024    2.6373252684    0.4182092879
N       -0.9404600452    1.7531715947    0.6204015668
C        0.9517197045    0.5729174826   -0.3685647411
C       -0.0267619951    0.6717222243    0.8201711394
C       -0.8242645067   -0.6226543895    1.0355621398
N       -0.6346566252   -1.3838406462    2.0064354370
C        1.5666378090   -0.7328595501   -0.7836556579
C        0.6708865437   -0.2534419221   -1.5900662457
H        1.5221740898    1.5028883787   -0.4656141298
H        0.5401828611    0.8736543851    1.7354364239
H       -1.5821453011   -0.8542248871    0.2717831338
H        2.2935664219   -1.4904299881   -0.5324792303
H        0.1072087273   -0.3186491223   -2.5086477645
