3    
Iteration 1 Energy -92.35406017
C        0.0338129012   -0.0049005627   -0.0002822879
N       -1.0996569191    0.0861891701    0.0008884710
H        1.0806465310   -0.0890280320   -0.0013635597
3    
Iteration 0 Energy -92.35406011
C        0.0338115063   -0.0049003578   -0.0002822870
N       -1.0997915701    0.0861999631    0.0008886106
H        1.0807825769   -0.0890390299   -0.0013637002
3    
Iteration 24 Energy -92.35405990
C        0.0337644855   -0.0048967982   -0.0002822372
N       -1.0999521693    0.0862129746    0.0008887759
H        1.0809901968   -0.0890556011   -0.0013639153
3    
Iteration 23 Energy -92.35405962
C        0.0337009273   -0.0048917187   -0.0002821714
N       -1.1000704914    0.0862224970    0.0008888980
H        1.0811720772   -0.0890702030   -0.0013641032
3    
Iteration 22 Energy -92.35405935
C        0.0336463682   -0.0048873409   -0.0002821150
N       -1.1001531714    0.0862291447    0.0008889834
H        1.0813093164   -0.0890812285   -0.0013642450
3    
Iteration 21 Energy -92.35405912
C        0.0336044909   -0.0048839783   -0.0002820717
N       -1.1002107568    0.0862337738    0.0008890429
H        1.0814087790   -0.0890892202   -0.0013643478
3    
Iteration 20 Energy -92.35405894
C        0.0335737275   -0.0048815170   -0.0002820399
N       -1.1002510540    0.0862370175    0.0008890845
H        1.0814798396   -0.0890949252   -0.0013644212
3    
Iteration 19 Energy -92.35405894
C        0.0335737485   -0.0048812595   -0.0002820414
N       -1.1002510656    0.0862368940    0.0008890852
H        1.0814798302   -0.0890950592   -0.0013644204
3    
Iteration 18 Energy -92.35405894
C        0.0335720252   -0.0049048320   -0.0002819042
N       -1.1002499634    0.0862481940    0.0008890190
H        1.0814804513   -0.0890827867   -0.0013644914
3    
Iteration 17 Energy -92.35376465
C        0.0313956721   -0.0318013855   -0.0001250792
N       -1.0979121165    0.0990633168    0.0008123576
H        1.0813189575   -0.0750013560   -0.0014446550
3    
Iteration 16 Energy -92.35209085
C        0.0294259704   -0.0746326398    0.0001224241
N       -1.0914752274    0.1192279755    0.0006876157
H        1.0768517701   -0.0523347604   -0.0015674164
3    
Iteration 15 Energy -92.34906482
C        0.0227915350   -0.1165859771    0.0003718732
N       -1.0845310184    0.1388797703    0.0005650455
H        1.0765419966   -0.0300332179   -0.0016942953
3    
Iteration 14 Energy -92.34488663
C        0.0289429288   -0.1555821964    0.0005853638
N       -1.0693737491    0.1569638535    0.0004391748
H        1.0552333334   -0.0091210818   -0.0017819152
3    
Iteration 13 Energy -92.33969174
C        0.0159768371   -0.1975664804    0.0008444350
N       -1.0589880810    0.1755431753    0.0003175945
H        1.0578137571    0.0142838804   -0.0019194061
3    
Iteration 12 Energy -92.33323930
C        0.0188199366   -0.2381328328    0.0010718262
N       -1.0382951808    0.1942241869    0.0001800575
H        1.0342777573    0.0361692212   -0.0020092603
3    
Iteration 11 Energy -92.32562398
C        0.0136893042   -0.2794386081    0.0013153345
N       -1.0183227426    0.2122637072    0.0000472581
H        1.0194359515    0.0594354762   -0.0021199692
3    
Iteration 10 Energy -92.31705932
C        0.0118365255   -0.3193705500    0.0015461084
N       -0.9942801420    0.2298660224   -0.0000891165
H        0.9972461296    0.0817651028   -0.0022143685
3    
Iteration 9 Energy -92.30768774
C        0.0079943520   -0.3588884648    0.0017774859
N       -0.9686889161    0.2467465430   -0.0002236800
H        0.9754970771    0.1044024970   -0.0023111826
3    
Iteration 8 Energy -92.29773745
C        0.0042075557   -0.3975258824    0.0020037533
N       -0.9409848889    0.2630470422   -0.0003580834
H        0.9515798463    0.1267394155   -0.0024030465
3    
Iteration 7 Energy -92.28748798
C       -0.0050890190   -0.4365617067    0.0022405148
N       -0.9146066690    0.2781135287   -0.0004834627
H        0.9344982011    0.1507087533   -0.0025144287
3    
Iteration 6 Energy -92.27788476
C        0.0081078009   -0.4625123994    0.0023690057
N       -0.8750522567    0.2927918191   -0.0006262814
H        0.8817469689    0.1619811557   -0.0025001009
3    
Iteration 5 Energy -92.26881691
C        0.0026659507   -0.4965490991    0.0025714721
N       -0.8436038758    0.3054448363   -0.0007454435
H        0.8557404382    0.1833648380   -0.0025834052
3    
Iteration 4 Energy -92.26096576
C       -0.0159837237   -0.5359279435    0.0028241450
N       -0.8184368207    0.3159449853   -0.0008429425
H        0.8492230574    0.2122435335   -0.0027385790
3    
Iteration 3 Energy -92.25405807
C       -0.0134915742   -0.5634443420    0.0029775449
N       -0.7761898368    0.3287199521   -0.0009789100
H        0.8044839241    0.2269849652   -0.0027560115
3    
Iteration 2 Energy -92.24911311
C       -0.0292178814   -0.5998806972    0.0032090553
N       -0.7429444420    0.3375664716   -0.0010790179
H        0.7869648364    0.2545748009   -0.0028874140
3    
Iteration 1 Energy -92.24654785
C       -0.0287686195   -0.6219740626    0.0033345374
N       -0.7010682886    0.3473345906   -0.0011972631
H        0.7446394211    0.2669000473   -0.0028946509
3    
Iteration 0 Energy -92.24601961
C       -0.0416596127   -0.6473950512    0.0034989208
N       -0.6747833462    0.3515418008   -0.0012604973
H        0.7312454720    0.2881138257   -0.0029958001
3    
Iteration 1 Energy -92.24711124
C       -0.0536231673   -0.6772956124    0.0036874988
N       -0.6334151307    0.3581386225   -0.0013598769
H        0.7018408111    0.3114175652   -0.0030849986
3    
Iteration 2 Energy -92.25013893
C       -0.0693992268   -0.7055291710    0.0038722458
N       -0.5909452040    0.3609235654   -0.0014391342
H        0.6751469440    0.3368661809   -0.0031904881
3    
Iteration 3 Energy -92.25461719
C       -0.0890550072   -0.7350465826    0.0040701111
N       -0.5505724533    0.3613061172   -0.0015015455
H        0.6544299735    0.3660010407   -0.0033259422
3    
Iteration 4 Energy -92.26012415
C       -0.1135310471   -0.7648104259    0.0042765742
N       -0.5132369799    0.3574214710   -0.0015350603
H        0.6415705401    0.3996495302   -0.0034988905
3    
Iteration 5 Energy -92.26643830
C       -0.1420479050   -0.7945739936    0.0044890638
N       -0.4799063054    0.3493140655   -0.0015384891
H        0.6367567235    0.4375205034   -0.0037079513
3    
Iteration 6 Energy -92.27339426
C       -0.1726027813   -0.8232571081    0.0046984243
N       -0.4488853612    0.3380189590   -0.0015202706
H        0.6362906556    0.4774987244   -0.0039355303
3    
Iteration 7 Energy -92.28078118
C       -0.2038438073   -0.8500533194    0.0048980342
N       -0.4183477642    0.3244285202   -0.0014882248
H        0.6369940846    0.5178853745   -0.0041671860
3    
Iteration 8 Energy -92.28833756
C       -0.2352315524   -0.8745611306    0.0050847963
N       -0.3876407935    0.3088511736   -0.0014450865
H        0.6376748590    0.5579705324   -0.0043970864
3    
Iteration 9 Energy -92.29579265
C       -0.2664117128   -0.8965117750    0.0052566474
N       -0.3564575901    0.2914980163   -0.0013925188
H        0.6376718160    0.5972743340   -0.0046215052
3    
Iteration 10 Energy -92.30291312
C       -0.2971939884   -0.9158501784    0.0054129891
N       -0.3248600886    0.2724905890   -0.0013311233
H        0.6368565900    0.6356201647   -0.0048392424
3    
Iteration 11 Energy -92.30953551
C       -0.3271962331   -0.9323296396    0.0055518428
N       -0.2923902269    0.2522899790   -0.0012642162
H        0.6343889730    0.6723002359   -0.0050450032
3    
Iteration 12 Energy -92.31556154
C       -0.3564042419   -0.9460739468    0.0056738940
N       -0.2594558013    0.2308339142   -0.0011908335
H        0.6306625564    0.7075006079   -0.0052404371
3    
Iteration 13 Energy -92.32095195
C       -0.3844222094   -0.9568907961    0.0057774542
N       -0.2253047946    0.2089898878   -0.0011170504
H        0.6245295171    0.7401614836   -0.0054177805
3    
Iteration 14 Energy -92.32568233
C       -0.4116335771   -0.9653354733    0.0058662662
N       -0.1912445496    0.1858819299   -0.0010359149
H        0.6176806398    0.7717141187   -0.0055877279
3    
Iteration 15 Energy -92.32976170
C       -0.4369240154   -0.9703318621    0.0059325230
N       -0.1545722988    0.1643978390   -0.0009679481
H        0.6062988273    0.7981945984   -0.0057219515
3    
Iteration 16 Energy -92.33305372
C       -0.4625306394   -0.9747361431    0.0059958705
N       -0.1220211237    0.1379389011   -0.0008654274
H        0.5993542762    0.8290578173   -0.0058878197
3    
Iteration 17 Energy -92.33559624
C       -0.4817566304   -0.9730679045    0.0060150257
N       -0.0851104553    0.1226903765   -0.0008334212
H        0.5816695988    0.8426381033   -0.0059389811
3    
Iteration 18 Energy -92.33747167
C       -0.5038589166   -0.9735886949    0.0060509710
N       -0.0548003341    0.0959705066   -0.0007260674
H        0.5734617637    0.8698787636   -0.0060822801
3    
Iteration 19 Energy -92.33862931
C       -0.5166693946   -0.9689136811    0.0060433871
N       -0.0277563079    0.0836403942   -0.0006960065
H        0.5592282155    0.8775338622   -0.0061047573
3    
Iteration 20 Energy -92.33944739
C       -0.5338381976   -0.9630417859    0.0060354708
N        0.0052448549    0.0634137042   -0.0006297430
H        0.5433958558    0.8918886570   -0.0061631044
3    
Iteration 21 Energy -92.33967946
C       -0.5437736164   -0.9569475794    0.0060154944
N        0.0280559128    0.0520579403   -0.0005989309
H        0.5305202167    0.8971502144   -0.0061739402
3    
Iteration 22 Energy -92.33968284
C       -0.5442074214   -0.9566014930    0.0060141491
N        0.0290849344    0.0514479529   -0.0005969473
H        0.5299250001    0.8974141154   -0.0061745784
3    
Iteration 23 Energy -92.33968659
C       -0.5448950639   -0.9562302667    0.0060130456
N        0.0305577278    0.0505939647   -0.0005942472
H        0.5291398492    0.8978968773   -0.0061761750
3    
Iteration 24 Energy -92.33968985
C       -0.5458548825   -0.9556831874    0.0060113901
N        0.0326364214    0.0493786752   -0.0005904884
H        0.5280209742    0.8985650875   -0.0061782783
3    
Iteration 25 Energy -92.33969016
C       -0.5466752374   -0.9552170652    0.0052463221
N        0.0344227098    0.0483597202    0.0010770474
H        0.5270550407    0.8991179203   -0.0070807462
3    
Iteration 1 Energy -92.33969047
C       -0.5466766827   -0.9552177562    0.0054943775
N        0.0344223611    0.0483550228    0.0005372589
H        0.5270568348    0.8991233087   -0.0067890131
