3    
IRC reactant Energy -92.35406011
C        0.0338115063   -0.0049003578   -0.0002822870
N       -1.0997915701    0.0861999631    0.0008886106
H        1.0807825769   -0.0890390299   -0.0013637002
3    
IRC product Energy -92.33969016
C       -0.5466752374   -0.9552170652    0.0052463221
N        0.0344227098    0.0483597202    0.0010770474
H        0.5270550407    0.8991179203   -0.0070807462
