3    
IRC reactant Energy -92.35406014
C        0.0289214590   -0.0022606082    0.0010809890
N       -1.1059243145    0.0697256600   -0.0041209421
H        1.0772089136   -0.0687559556    0.0058858357
