3    
Iteration 0 Energy -92.35406014
C        0.0289214590   -0.0022606082    0.0010809890
N       -1.1059243145    0.0697256600   -0.0041209421
H        1.0772089136   -0.0687559556    0.0058858357
3    
Iteration 1 Energy -92.35406017
C        0.0289895650   -0.0022648590    0.0010812278
N       -1.1058497683    0.0697208885   -0.0041205649
H        1.0770662614   -0.0687469332    0.0058852197
