13   
IRC product Energy -340.99817240
C       -2.4160309947    1.4017001153    1.3288511238
N       -2.7124229634    2.4736337977    1.7102363136
C        1.3058594071    0.1668589328   -0.4852620727
C        0.0478722601    0.6062584768    0.1332168624
C       -1.0534036856   -0.2119829265    0.3820423989
N       -2.2109141101    0.1548580017    0.9420280045
C        1.8161859554   -1.2688292997   -0.3284891237
C        1.3424049980   -0.9860214735   -1.4931058782
H        2.0450398614    0.9614493343   -0.5930249303
H       -0.0238769447    1.6549024676    0.4175111594
H       -1.0091396480   -1.2636563610    0.1081786147
H        2.2396784090   -1.9535687958    0.3900091736
H        1.0635233589   -1.2515230788   -2.5011687880
