13   
Iteration 0 Energy -340.92393773
C       -1.2234925847    2.0892101392    0.3682846835
N       -0.3699595423    1.3727461220    0.7519201983
C        1.4084557809   -0.1012588428   -0.1013315135
C        0.6766845615    0.4953836961    1.1285872934
C        0.1755217710   -0.6438853085    2.0264738196
N       -1.0090227565   -0.8498900211    2.3639845916
C        0.6775553475   -0.5379860085   -1.3329988210
C        1.3669567017    0.5544899058   -1.4477775364
H        2.3068247116   -0.6391359057    0.2235589381
H        1.4070211060    1.0688689652    1.7175297674
H        0.9711760201   -1.3270055896    2.3654820784
H        0.0188741131   -1.2789443294   -1.7600364765
H        1.7067483833    1.3917373084   -2.0383040071
13   
Iteration 1 Energy -340.92393771
C       -1.2233683168    2.0895023442    0.3678284369
N       -0.3699749029    1.3729658203    0.7516429368
C        1.4082153801   -0.1014950708   -0.1012452058
C        0.6765007303    0.4955061492    1.1285346588
C        0.1750305171   -0.6434948796    2.0266007397
N       -1.0096118278   -0.8491648576    2.3639650410
C        0.6772773685   -0.5382557778   -1.3328819533
C        1.3668954796    0.5540704780   -1.4477866473
H        2.3064661482   -0.6395001226    0.2237674922
H        1.4069399874    1.0689579816    1.7173826077
H        0.9704758275   -1.3267133530    2.3658601659
H        0.0184651381   -1.2791437216   -1.7598392872
H        1.7068717820    1.3911703923   -2.0384156472
