13   
Climbing Image - Chain 36 Image 5 Energy  -341.0007124670 (+6.824 kcal/mol) RMSGrad 0.021 eV/Ang
C       -2.4998199090    1.4202704790    1.3886178920
N       -2.8297817647    2.4757086361    1.7708981222
C        1.0514703109    0.3977208336   -0.5964575204
C       -0.0991387083    0.7866303167   -0.0097758542
C       -1.1496792203   -0.1348478810    0.3825177549
N       -2.2423637049    0.1617832530    1.0144767013
C        2.2176359499   -1.7713220923   -0.2598621439
C        1.4158930365   -1.0008007548   -0.9628299098
H        1.7865037315    1.1655712523   -0.8370669666
H       -0.2604174933    1.8394932537    0.2057955645
H       -1.0216185194   -1.1880393845    0.1360930117
H        2.6273399237   -2.7706040922   -0.3161399680
H        1.0018398491   -1.3796887794   -1.9083996096
