13   
Climbing Image - Chain 5 Image 6 Energy  -340.9212615391 (+1.679 kcal/mol) RMSGrad 0.042 eV/Ang
C       -2.4919359587    1.2010900080   -0.8941638397
N       -1.6122374952    0.8836196715   -0.1762595924
C        0.8258754949    0.5377303019   -0.1866569400
C       -0.4992182881    0.5051103454    0.6252429582
C       -0.7160950285   -0.8567848725    1.2947161586
N       -1.6985628611   -1.6105371572    1.1375843045
C        1.4883313994   -0.7200595313   -0.6832026187
C        0.8890361761   -0.0092728805   -1.5830205858
H        1.4334262159    1.4078687882    0.0812712991
H       -0.4109890107    1.2387444219    1.4376799157
H        0.1078674076   -1.1574438686    1.9626041127
H        2.0750402032   -1.5823117736   -0.4040918399
H        0.6094687336    0.1624968992   -2.6117754645
