13   
step_01 start
C       -2.1792726370    1.2896367629   -0.9075770506
N       -1.3451046166    0.9336024360   -0.1537837552
C        0.9082274751   -0.0604024053   -0.1114253993
C       -0.3098748730    0.4551812013    0.6940481632
C       -0.8532036573   -0.6761723110    1.5830570165
N       -0.6239635452   -0.7505640909    2.8080036195
C        0.7729260763   -0.7525302509   -1.4349477251
C        1.2374872168    0.4573134627   -1.4795008597
H        1.7067449124   -0.3464624035    0.5810289363
H        0.0141581680    1.2727883225    1.3468971982
H       -1.4306765788   -1.4544642732    1.0608941439
H        0.4857667187   -1.6609784541   -1.9428918183
H        1.6157982676    1.2958487630   -2.0442787085
13   
step_01 end
C       -2.2811354919    2.1017164037    0.4026379202
N       -1.5375751571    1.2140109135    0.6265142875
C        0.5745605813    0.2403263328   -0.1098850269
C       -0.6268640043    0.1351711448    0.8523233645
C       -1.3818223675   -1.1941852658    0.7085358624
N       -1.3512207309   -2.0901979976    1.5769707901
C        1.3272784212   -0.9731960326   -0.5749409206
C        0.5883258120   -0.3945036259   -1.4702443273
H        1.1038511400    1.1858663468    0.0497536387
H       -0.2671016518    0.2076429272    1.8844201292
H       -1.9574081718   -1.3232055485   -0.2206656183
H        2.0271583270   -1.7450035814   -0.2922537812
H        0.2249593690   -0.3297254867   -2.4849062910
