13   
Iteration 0 Energy -340.92257160
C       -2.4896449353    1.7614034684   -0.4011499978
N       -1.5984943057    1.1599571093    0.0817392456
C        0.7090592143    0.5241913971   -0.3496069105
C       -0.4867873419    0.4536181357    0.6243615270
C       -0.8527056721   -0.9850051837    0.9982272570
N       -1.9612273031   -1.5327363463    0.8243471347
C        1.7233322014   -0.5774286400   -0.4812741155
C        0.8887257567   -0.4612568882   -1.4672129156
H        1.0138411369    1.5657840079   -0.4962250573
H       -0.2027606855    0.9567834525    1.5604439632
H       -0.0319074187   -1.5490235559    1.4688861732
H        2.5791904940   -1.0597623630   -0.0325440933
H        0.5318756094   -0.7728080354   -2.4370125823
13   
Iteration 1 Energy -340.92257159
C       -2.4894172647    1.7616458372   -0.4018026763
N       -1.5983908034    1.1601386100    0.0812399138
C        0.7092014097    0.5242162219   -0.3496924071
C       -0.4868298107    0.4537171742    0.6240565917
C       -0.8529164168   -0.9848827726    0.9978401704
N       -1.9614667966   -1.5324823897    0.8237325019
C        1.7234365059   -0.5774577666   -0.4812066701
C        0.8890009802   -0.4612267142   -1.4672824191
H        1.0140711410    1.5657920805   -0.4962444050
H       -0.2029390310    0.9568533291    1.5601954580
H       -0.0322581602   -1.5489880194    1.4686414513
H        2.5791945205   -1.0598442606   -0.0323420411
H        0.5322987724   -0.7727424086   -2.4371477683
