13   
IRC product Energy -340.92655419
C       -1.4919156181    1.7711620685    0.1210811725
N       -0.5600790648    1.2308887406    0.6012734696
C        1.4570225229   -0.0384152479   -0.0212878440
C        0.5692099796    0.5347763138    1.1107806673
C        0.1001048127   -0.6101044916    2.0243757947
N        0.6122142826   -0.8480139938    3.1378088816
C        0.8941488901   -0.5621694471   -1.3088881306
C        1.5061562914    0.5783805933   -1.3870403770
H        2.3520777567   -0.4942390771    0.4146576438
H        1.1645880445    1.2277001039    1.7149761717
H       -0.6990457842   -1.2468298493    1.6147636050
H        0.3581063254   -1.3680180449   -1.7874155397
H        1.8507551744    1.4192124628   -1.9697124993
