13   
Iteration 0 Energy -340.92655419
C       -1.4919156181    1.7711620685    0.1210811725
N       -0.5600790648    1.2308887406    0.6012734696
C        1.4570225229   -0.0384152479   -0.0212878440
C        0.5692099796    0.5347763138    1.1107806673
C        0.1001048127   -0.6101044916    2.0243757947
N        0.6122142826   -0.8480139938    3.1378088816
C        0.8941488901   -0.5621694471   -1.3088881306
C        1.5061562914    0.5783805933   -1.3870403770
H        2.3520777567   -0.4942390771    0.4146576438
H        1.1645880445    1.2277001039    1.7149761717
H       -0.6990457842   -1.2468298493    1.6147636050
H        0.3581063254   -1.3680180449   -1.7874155397
H        1.8507551744    1.4192124628   -1.9697124993
13   
Iteration 1 Energy -340.92655419
C       -1.4919015705    1.7713457681    0.1206099234
N       -0.5601084537    1.2311396495    0.6009565575
C        1.4570226600   -0.0382982340   -0.0212194016
C        0.5691256199    0.5351122655    1.1106746947
C        0.0998869808   -0.6095635500    2.0244689639
N        0.6118332519   -0.8470083975    3.1380777603
C        0.8941677864   -0.5622092591   -1.3087630459
C        1.5063140717    0.5782562757   -1.3870778981
H        2.3520044070   -0.4941304950    0.4148704983
H        1.1644424624    1.2281661864    1.7147834749
H       -0.6992508374   -1.2463939740    1.6149853129
H        0.3580540411   -1.3680923404   -1.7871849827
H        1.8510327399    1.4189411279   -1.9698689743
