13   
Iteration 0 Energy -340.92257120
C       -1.7445610924    2.4965829599    0.0296264352
N       -1.0240168534    1.6265382134    0.3657078384
C        0.9077403418    0.3597602740   -0.3981029864
C       -0.1213537464    0.5861977931    0.7304381332
C       -0.8586300373   -0.6987438812    1.1160171583
N       -2.0939535095   -0.8778200249    1.0854022800
C        1.5093695092   -0.9845707576   -0.6992429133
C        0.6353267774   -0.5553796540   -1.5559623602
H        1.4975082508    1.2686404609   -0.5575253142
H        0.4174536488    0.9187301751    1.6300092954
H       -0.1965345003   -1.5118984069    1.4533273387
H        2.2241174121   -1.7316865760   -0.3870657510
H        0.0824471732   -0.6780775065   -2.4747603023
13   
Iteration 1 Energy -340.92257139
C       -1.7432974859    2.4965401953    0.0281662138
N       -1.0233968303    1.6263468099    0.3651727453
C        0.9076320045    0.3598166507   -0.3980889032
C       -0.1213573812    0.5860441597    0.7304096533
C       -0.8588829683   -0.6987742350    1.1158919220
N       -2.0943097418   -0.8770751588    1.0846657196
C        1.5095857852   -0.9843037128   -0.6993440835
C        0.6353649036   -0.5553562308   -1.5559894251
H        1.4971488345    1.2688466583   -0.5575619994
H        0.4171412700    0.9188115322    1.6300483930
H       -0.1972185979   -1.5121597475    1.4535030206
H        2.2245736351   -1.7312170589   -0.3872549690
H        0.0824378459   -0.6781542321   -2.4747426559
