3    
IRC reactant Energy -92.33969073
C       -0.5537486020   -0.9516463689   -0.0047897917
N        0.0291154515    0.0508901461    0.0003284714
H        0.5232416884    0.9007962947    0.0046674153
