3    
Iteration 0 Energy -92.33969073
C       -0.5537486020   -0.9516463689   -0.0047897917
N        0.0291154515    0.0508901461    0.0003284714
H        0.5232416884    0.9007962947    0.0046674153
3    
Iteration 1 Energy -92.33969073
C       -0.5537544719   -0.9516561123   -0.0047898380
N        0.0291145106    0.0508885044    0.0003284524
H        0.5232484992    0.9008076797    0.0046674806
