13   
Iteration 1 Energy -340.92655383
C       -2.1791967083    1.2894216276   -0.9075404168
N       -1.3450286879    0.9333873007   -0.1537471214
C        0.9083034038   -0.0606175406   -0.1113887655
C       -0.3097989443    0.4549660660    0.6940847970
C       -0.8531277286   -0.6763874463    1.5830936503
N       -0.6238876165   -0.7507792262    2.8080402533
C        0.7730020050   -0.7527453862   -1.4349110913
C        1.2375631455    0.4570983274   -1.4794642259
H        1.7068208411   -0.3466775388    0.5810655701
H        0.0142340967    1.2725731872    1.3469338320
H       -1.4306006501   -1.4546794085    1.0609307777
H        0.4858426474   -1.6611935894   -1.9428551845
H        1.6158741963    1.2956336277   -2.0442420747
13   
Iteration 242 Energy -340.92655378
C       -2.1802190954    1.2882277158   -0.9073403505
N       -1.3454999013    0.9324351533   -0.1540398181
C        0.9079831497   -0.0612078349   -0.1116656344
C       -0.3099063904    0.4547434997    0.6937731210
C       -0.8528492384   -0.6759319648    1.5838749743
N       -0.6243321340   -0.7489994547    2.8090491569
C        0.7727639576   -0.7521218924   -1.4358604730
C        1.2384246134    0.4573622373   -1.4791282657
H        1.7059646493   -0.3483740140    0.5809594933
H        0.0142804811    1.2728263787    1.3459604278
H       -1.4296410940   -1.4550957499    1.0622919557
H        0.4851478894   -1.6598475124   -1.9448523235
H        1.6178831131    1.2959834382   -2.0430222637
13   
Iteration 241 Energy -340.92655378
C       -2.1802191048    1.2882276698   -0.9073403663
N       -1.3454999085    0.9324351280   -0.1540398266
C        0.9079831436   -0.0612078522   -0.1116656390
C       -0.3099063918    0.4547434937    0.6937731162
C       -0.8528492332   -0.6759319533    1.5838749957
N       -0.6243321332   -0.7489994088    2.8090491812
C        0.7727639475   -0.7521218725   -1.4358604970
C        1.2384246318    0.4573622477   -1.4791282537
H        1.7059646311   -0.3483740648    0.5809594889
H        0.0142804813    1.2728263861    1.3459604058
H       -1.4296410814   -1.4550957563    1.0622919956
H        0.4851478629   -1.6598474723   -1.9448523743
H        1.6178831547    1.2959834549   -2.0430222265
13   
Iteration 240 Energy -340.92655114
C       -2.1721831695    1.3103793381   -0.9015796292
N       -1.3406529474    0.9444956060   -0.1496224840
C        0.9111464973   -0.0535727985   -0.1094637666
C       -0.3083793687    0.4571488046    0.6967635982
C       -0.8552892394   -0.6815030080    1.5741387187
N       -0.6301819244   -0.7681423035    2.7990244125
C        0.7768349685   -0.7615684957   -1.4245779940
C        1.2278614528    0.4526906549   -1.4849026930
H        1.7157726851   -0.3246924374    0.5819444766
H        0.0151749805    1.2686927719    1.3573156272
H       -1.4316274779   -1.4543741626    1.0427326261
H        0.4969903066   -1.6785332334   -1.9212154967
H        1.5945332365    1.2889792635   -2.0605573958
13   
Iteration 239 Energy -340.92653401
C       -2.1634362895    1.3361861301   -0.8937391211
N       -1.3349847014    0.9585364343   -0.1441585846
C        0.9149257297   -0.0444558047   -0.1072062881
C       -0.3064849880    0.4596817954    0.7001951439
C       -0.8582738353   -0.6879871799    1.5626426459
N       -0.6383429535   -0.7894304840    2.7873209949
C        0.7816909119   -0.7722755648   -1.4114771002
C        1.2157920438    0.4469897905   -1.4917047687
H        1.7269502592   -0.2968691740    0.5825464588
H        0.0164831072    1.2633368140    1.3704779909
H       -1.4329863301   -1.4540235209    1.0196990785
H        0.5109498201   -1.6997164496   -1.8935261946
H        1.5677172259    1.2800272136   -2.0810702556
13   
Iteration 238 Energy -340.92649870
C       -2.1541363971    1.3643902701   -0.8843409905
N       -1.3289110400    0.9738152257   -0.1379075189
C        0.9189351309   -0.0350375459   -0.1048682662
C       -0.3043041403    0.4625624635    0.7038440369
C       -0.8611989643   -0.6947570399    1.5498863084
N       -0.6488435439   -0.8114425178    2.7744843132
C        0.7871476635   -0.7838111355   -1.3972650386
C        1.2024937768    0.4403075173   -1.4988176933
H        1.7391605251   -0.2671408803    0.5823263103
H        0.0179190809    1.2575883461    1.3846180023
H       -1.4327578380   -1.4540227460    0.9941838282
H        0.5264823084   -1.7221682387   -1.8635005931
H        1.5380134381    1.2697162814   -2.1026426988
13   
Iteration 237 Energy -340.92644612
C       -2.1449769943    1.3928556106   -0.8740179067
N       -1.3226344503    0.9892516878   -0.1312868973
C        0.9231031451   -0.0252395634   -0.1028288515
C       -0.3020084902    0.4651708637    0.7075518551
C       -0.8643784939   -0.7015654684    1.5368346416
N       -0.6602699616   -0.8330713785    2.7613139316
C        0.7928146927   -0.7951846868   -1.3828493670
C        1.1891425773    0.4332490440   -1.5060030075
H        1.7511716863   -0.2366263061    0.5815159609
H        0.0195837633    1.2511381428    1.3989097213
H       -1.4320657193   -1.4541329309    0.9681956141
H        0.5425309677   -1.7442415709   -1.8328581111
H        1.5079872772    1.2583965562   -2.1244775836
13   
Iteration 236 Energy -340.92637648
C       -2.1356981131    1.4216193179   -0.8629787104
N       -1.3163547037    1.0048275167   -0.1242962379
C        0.9272632163   -0.0157256898   -0.1008780348
C       -0.2996139514    0.4677886390    0.7112159663
C       -0.8674777416   -0.7081874878    1.5234496428
N       -0.6726404826   -0.8543101415    2.7477242340
C        0.7989045443   -0.8065681480   -1.3682719631
C        1.1754008906    0.4256720337   -1.5130186983
H        1.7634616655   -0.2059669787    0.5797603851
H        0.0213109714    1.2444787364    1.4131947110
H       -1.4309033736   -1.4540394128    0.9418124976
H        0.5594332089   -1.7660034781   -1.8018723710
H        1.4769138690    1.2464150928   -2.1458414215
13   
Iteration 235 Energy -340.92629092
C       -2.1264673311    1.4501452062   -0.8513942821
N       -1.3099247933    1.0203245970   -0.1170444588
C        0.9314879551   -0.0060729713   -0.0992395960
C       -0.2971436504    0.4701125997    0.7148967036
C       -0.8707917804   -0.7146948962    1.5099858957
N       -0.6853928839   -0.8750524443    2.7339206724
C        0.8052545062   -0.8176816876   -1.3536767779
C        1.1616561725    0.4178061241   -1.5199390537
H        1.7753762484   -0.1749737352    0.5773875957
H        0.0232263558    1.2372332699    1.4274222405
H       -1.4297274940   -1.4537416573    0.9154528045
H        0.5768058577   -1.7870719603   -1.7707937784
H        1.4456408375    1.2336675555   -2.1669779656
13   
Iteration 234 Energy -340.92618994
C       -2.1172279489    1.4785438648   -0.8392907173
N       -1.3035570491    1.0357881486   -0.1095052065
C        0.9356500585    0.0033395920   -0.0977232738
C       -0.2946297958    0.4723902793    0.7184981763
C       -0.8740453988   -0.7209779504    1.4963362366
N       -0.6986165308   -0.8953351197    2.7197748151
C        0.8119458764   -0.8286166304   -1.3390533087
C        1.1477588052    0.4095004908   -1.5266088699
H        1.7873076894   -0.1440176331    0.5741258336
H        0.0251747661    1.2297752922    1.4415091813
H       -1.4283788352   -1.4531408526    0.8890586721
H        0.5948016406   -1.8075308840   -1.7396503698
H        1.4138167224    1.2202814026   -2.1874711690
13   
Iteration 233 Energy -340.92607547
C       -2.1080513509    1.5067004488   -0.8266973767
N       -1.2971179777    1.0511814708   -0.1017024714
C        0.9397907483    0.0128141494   -0.0964962767
C       -0.2920783936    0.4744545480    0.7220882169
C       -0.8774232370   -0.7271075498    1.4825964572
N       -0.7120967537   -0.9151400948    2.7053894600
C        0.8188531874   -0.8392787934   -1.3244430019
C        1.1338927136    0.4008767472   -1.5330864072
H        1.7987890063   -0.1128393550    0.5702433096
H        0.0272648168    1.2218463360    1.4554813835
H       -1.4269209915   -1.4523349954    0.8627046972
H        0.6132772380   -1.8272865180   -1.7084846385
H        1.3818209941    1.2061136063   -2.2075933519
13   
Iteration 232 Energy -340.92594975
C       -2.0988412432    1.5346675678   -0.8136574588
N       -1.2907289258    1.0665149748   -0.0936129769
C        0.9438395234    0.0220559619   -0.0954303915
C       -0.2895006619    0.4764151455    0.7256022029
C       -0.8808042252   -0.7330008806    1.4687521698
N       -0.7259119671   -0.9344720836    2.6907256779
C        0.8260717997   -0.8497330143   -1.3098946189
C        1.1199007920    0.3918755185   -1.5392882886
H        1.8101547430   -0.0816838251    0.5654883630
H        0.0294506294    1.2136452695    1.4692644149
H       -1.4254521408   -1.4512002407    0.8364776609
H        0.6324718733   -1.8464175983   -1.6773764426
H        1.3493498032    1.1913332047   -2.2270503122
13   
Iteration 231 Energy -340.92581487
C       -2.0895930424    1.5623486143   -0.8002115004
N       -1.2842463322    1.0817698277   -0.0852468818
C        0.9478451182    0.0312444745   -0.0946458560
C       -0.2868732297    0.4781431713    0.7291034375
C       -0.8843450326   -0.7386996777    1.4548728538
N       -0.7398964971   -0.9533533851    2.6758540324
C        0.8335863133   -0.8599495787   -1.2954262937
C        1.1058294381    0.3825878444   -1.5452811015
H        1.8211065112   -0.0503247771    0.5600492067
H        0.0318389668    1.2049689275    1.4829004427
H       -1.4241521032   -1.4497233528    0.8104279629
H        0.6523549273   -1.8648840047   -1.6463704055
H        1.3165449623    1.1758719163   -2.2460258972
13   
Iteration 230 Energy -340.92567184
C       -2.0802872630    1.5897084494   -0.7863986212
N       -1.2777654774    1.0969338836   -0.0765989258
C        0.9517735295    0.0402281265   -0.0940288892
C       -0.2842054436    0.4797340228    0.7325466093
C       -0.8879417827   -0.7441613570    1.4409339424
N       -0.7540440724   -0.9718199057    2.6607230391
C        0.8414449753   -0.8699362059   -1.2810423971
C        1.0916241023    0.3729567487   -1.5510206489
H        1.8318708732   -0.0189343579    0.5537614747
H        0.0343473542    1.1959786750    1.4963563439
H       -1.4230947334   -1.4478139393    0.7845928116
H        0.6729623813   -1.8826834686   -1.6154830138
H        1.2833155566    1.1598093285   -2.2643417250
13   
Iteration 229 Energy -340.92552144
C       -2.0709850866    1.6166857868   -0.7722329734
N       -1.2712272229    1.1119992177   -0.0676813569
C        0.9556369137    0.0491793893   -0.0936560615
C       -0.2814964401    0.4811489681    0.7359694713
C       -0.8916430181   -0.7494291270    1.4269392071
N       -0.7682099652   -0.9899080385    2.6453458346
C        0.8495641082   -0.8796522529   -1.2667184525
C        1.0774026189    0.3630134191   -1.5565385481
H        1.8421793714    0.0126503315    0.5468068417
H        0.0369970279    1.1865800596    1.5096713115
H       -1.4222344140   -1.4455310175    0.7589217857
H        0.6941300587   -1.8997608138   -1.5846883312
H        1.2498860481    1.1430240775   -2.2821387283
13   
Iteration 228 Energy -340.92536502
C       -2.0617003639    1.6433009087   -0.7577257621
N       -1.2647294513    1.1269609398   -0.0584875852
C        0.9593952596    0.0580189331   -0.0934476656
C       -0.2787739421    0.4824631892    0.7393283871
C       -0.8953597511   -0.7544784314    1.4128683425
N       -0.7823844074   -1.0076377770    2.6296868439
C        0.8579406671   -0.8891015309   -1.2524530170
C        1.0631693242    0.3527136417   -1.5617909699
H        1.8521567110    0.0442881124    0.5390739466
H        0.0397142699    1.1768951202    1.5228074530
H       -1.4215500914   -1.4428542464    0.7334317398
H        0.7158820755   -1.9161206788   -1.5539864318
H        1.2162396999    1.1255518194   -2.2993052811
13   
Iteration 227 Energy -340.92520487
C       -2.0524500062    1.6695577780   -0.7428686544
N       -1.2582213436    1.1418199695   -0.0490201716
C        0.9630330484    0.0668329407   -0.0934805893
C       -0.2760374217    0.4836257704    0.7426467823
C       -0.8991568820   -0.7593296731    1.3987459089
N       -0.7964656798   -1.0250152423    2.6137809132
C        0.8665626623   -0.8982851573   -1.2382563405
C        1.0489617863    0.3420954292   -1.5667960688
H        1.8615925044    0.0761003235    0.5306775641
H        0.0425681875    1.1668305093    1.5357663728
H       -1.4210866950   -1.4398085402    0.7081367216
H        0.7382451506   -1.9317606595   -1.5234113325
H        1.1824546888    1.1073365516   -2.3159211058
13   
Iteration 226 Energy -340.92504363
C       -2.0432557105    1.6954620908   -0.7276521511
N       -1.2517623452    1.1565576086   -0.0392791775
C        0.9665227458    0.0755358627   -0.0937056573
C       -0.2733043733    0.4846628928    0.7458857186
C       -0.9029989238   -0.7639548649    1.3845896201
N       -0.8104213060   -1.0420360421    2.5976349904
C        0.8755048564   -0.9072095590   -1.2241520759
C        1.0347393426    0.3311478963   -1.5715354206
H        1.8705680320    0.1079490499    0.5215329079
H        0.0455298807    1.1564604099    1.5484929281
H       -1.4209460280   -1.4363342229    0.6831111507
H        0.7613226116   -1.9466794987   -1.4930237288
H        1.1485012179    1.0884383766   -2.3318991044
13   
Iteration 225 Energy -340.92488362
C       -2.0341720465    1.7209890678   -0.7120515029
N       -1.2453300577    1.1711658802   -0.0292719672
C        0.9698476404    0.0841927068   -0.0941746133
C       -0.2705761856    0.4855535608    0.7490585143
C       -0.9069136943   -0.7683727529    1.3704098963
N       -0.8241655989   -1.0587137361    2.5812720383
C        0.8847677378   -0.9158628141   -1.2101428466
C        1.0205485690    0.3198925421   -1.5760334700
H        1.8789154596    0.1399209587    0.5117496458
H        0.0486353894    1.1457430096    1.5609820962
H       -1.4211432005   -1.4324585463    0.6583568326
H        0.7850704362   -1.9608538333   -1.4628503860
H        1.1145155512    1.0688039568   -2.3473042376
13   
Iteration 224 Energy -340.92472628
C       -2.0252507566    1.7461400931   -0.6960564344
N       -1.2389917803    1.1856337810   -0.0189945352
C        0.9729887185    0.0927741159   -0.0948452568
C       -0.2678736358    0.4863411340    0.7521379938
C       -0.9108450455   -0.7725765502    1.3561981621
N       -0.8376760801   -1.0750742878    2.5646769896
C        0.8943426055   -0.9242307308   -1.1962306031
C        1.0064311746    0.3083059988   -1.5802755948
H        1.8866818420    0.1719409919    0.5012772028
H        0.0518161138    1.1347572520    1.5732105438
H       -1.4216505885   -1.4281768231    0.6338769894
H        0.8094556572   -1.9742699961   -1.4328727490
H        1.0805717752    1.0484350213   -2.3621027083
13   
Iteration 223 Energy -340.92457241
C       -2.0165050109    1.7709161660   -0.6796653917
N       -1.2327355309    1.1999637665   -0.0084479143
C        0.9759256394    0.1013391261   -0.0957552097
C       -0.2652037396    0.4870201988    0.7551377045
C       -0.9148050660   -0.7765911027    1.3419535371
N       -0.8508915410   -1.0911525292    2.5478590881
C        0.9041791892   -0.9323048553   -1.1824091515
C        0.9924503175    0.2964035461   -1.5842821496
H        1.8937400486    0.2041010433    0.4901910679
H        0.0550904226    1.1234761959    1.5851861990
H       -1.4224519873   -1.4235363124    0.6096610855
H        0.8344345349   -1.9869203946   -1.4030676834
H        1.0467727235    1.0272851515   -2.3763611821
13   
Iteration 222 Energy -340.92442288
C       -2.0079229718    1.7953284290   -0.6629078514
N       -1.2265946201    1.2141399576    0.0023663107
C        0.9786441141    0.1098502234   -0.0968814221
C       -0.2625801773    0.4876035612    0.7580401746
C       -0.9187726561   -0.7804051143    1.3276953702
N       -0.8637700114   -1.1069712268    2.5308302692
C        0.9142831103   -0.9400839615   -1.1686891768
C        0.9785952596    0.2841836439   -1.5880466882
H        1.9001183514    0.2363286625    0.4784386326
H        0.0584239067    1.1119395295    1.5968877588
H       -1.4235924719   -1.4185018947    0.5857458716
H        0.8600555317   -1.9988012992   -1.3734370503
H        1.0131126349    1.0053894895   -2.3900421988
13   
Iteration 221 Energy -340.92427885
C       -1.9994876658    1.8193669549   -0.6457966786
N       -1.2205360781    1.2281532305    0.0134292438
C        0.9811250678    0.1183249329   -0.0982510829
C       -0.2600030263    0.4880712907    0.7608560051
C       -0.9227792746   -0.7840286813    1.3134443687
N       -0.8762222570   -1.1225580967    2.5136158258
C        0.9246753774   -0.9475677898   -1.1550717062
C        0.9648523585    0.2716693098   -1.5915896098
H        1.9057163706    0.2686608098    0.4660830992
H        0.0618625314    1.1001242748    1.6083023953
H       -1.4251741855   -1.4130625491    0.5621704280
H        0.8863668875   -2.0099025041   -1.3440135414
H        0.9796038942    0.9827488175   -2.4031787469
13   
Iteration 220 Energy -340.92414171
C       -1.9912433137    1.8430067444   -0.6283484296
N       -1.2145959347    1.2419725658    0.0247150649
C        0.9833635462    0.1267341525   -0.0998379249
C       -0.2574833438    0.4884387771    0.7635613512
C       -0.9267990272   -0.7874469703    1.2992197090
N       -0.8881651662   -1.1379397650    2.4962260738
C        0.9353956832   -0.9547384371   -1.1415602788
C        0.9512090825    0.2588575926   -1.5948996815
H        1.9105446814    0.3009940976    0.4531241273
H        0.0653664685    1.0880897280    1.6193907829
H       -1.4272469608   -1.4071647836    0.5389666757
H        0.9133601107   -2.0201919164   -1.3148259864
H        0.9462941739    0.9593882143   -2.4157314836
13   
Iteration 219 Energy -340.92401270
C       -1.9832522397    1.8662251405   -0.6105420616
N       -1.2087853331    1.2555899055    0.0362010891
C        0.9853342064    0.1351180744   -0.1016465954
C       -0.2550365134    0.4887224306    0.7661581971
C       -0.9308216232   -0.7906801420    1.2850111511
N       -0.8995144569   -1.1531646310    2.4786525583
C        0.9464251144   -0.9615740530   -1.1281328533
C        0.9377267355    0.2457571717   -1.5979884442
H        1.9145168506    0.3333568378    0.4396446878
H        0.0689358607    1.0758626944    1.6301385098
H       -1.4298106049   -1.4008389493    0.5161292900
H        0.9409611967   -2.0296413428   -1.2858650029
H        0.9133208069    0.9352668631   -2.4277605258
13   
Iteration 218 Energy -340.92389304
C       -1.9755780464    1.8890191005   -0.5923837018
N       -1.2031680820    1.2689880113    0.0478785107
C        0.9870277370    0.1434808228   -0.1036569336
C       -0.2526850525    0.4889520208    0.7686261555
C       -0.9348020629   -0.7937282533    1.2708186652
N       -0.9102340546   -1.1682663182    2.4608893441
C        0.9577280155   -0.9680561434   -1.1147808271
C        0.9244650794    0.2323635039   -1.6008422734
H        1.9176347090    0.3656959238    0.4256471343
H        0.0725128685    1.0635026842    1.6405229196
H       -1.4327876941   -1.3940974108    0.4936463279
H        0.9690770984   -2.0382282102   -1.2571033267
H        0.8808094848    0.9103742686   -2.4392619948
13   
Iteration 217 Energy -340.92378367
C       -1.9681908147    1.9114115700   -0.5738756259
N       -1.1977378910    1.2821742999    0.0597574575
C        0.9884110228    0.1518494899   -0.1058826035
C       -0.2504382580    0.4891279730    0.7709821785
C       -0.9387465886   -0.7966150756    1.2566450171
N       -0.9203348036   -1.1832607237    2.4429513516
C        0.9692667964   -0.9741837487   -1.1015000775
C        0.9114606630    0.2186934881   -1.6034769334
H        1.9198336753    0.3980741393    0.4111450575
H        0.0761243198    1.0509999265    1.6505555184
H       -1.4361601841   -1.3870017898    0.4715270181
H        0.9977148307   -2.0459516651   -1.2285272217
H        0.8487972320    0.8846821164   -2.4503011368
13   
Iteration 216 Energy -340.92368524
C       -1.9610199578    1.9334160114   -0.5550654273
N       -1.1924892405    1.2951284695    0.0718450004
C        0.9894883912    0.1601896791   -0.1083319342
C       -0.2482889025    0.4892254764    0.7732258062
C       -0.9426701064   -0.7993309887    1.2425428086
N       -0.9298727094   -1.1981056438    2.4249056706
C        0.9810746350   -0.9799530552   -1.0883325059
C        0.8986640509    0.2047577112   -1.6058967055
H        1.9211259065    0.4304393996    0.3960925681
H        0.0797871924    1.0383459677    1.6602250467
H       -1.4399491539   -1.3795477247    0.4498331375
H        1.0269437179   -2.0527980791   -1.2001963706
H        0.8172061767    0.8582327766   -2.4608470946
13   
Iteration 215 Energy -340.92359788
C       -1.9540139282    1.9550308372   -0.5359365131
N       -1.1873695091    1.3078428763    0.0841467620
C        0.9902433154    0.1684891219   -0.1110256800
C       -0.2462151963    0.4892140376    0.7753780074
C       -0.9466095249   -0.8018827232    1.2285443377
N       -0.9389236762   -1.2127419575    2.4068148236
C        0.9932045866   -0.9853528747   -1.0753088440
C        0.8860250646    0.1905657762   -1.6081363998
H        1.9214696413    0.4627920526    0.3804910380
H        0.0835681042    1.0255132445    1.6695372741
H       -1.4442147998   -1.3717607117    0.4286177448
H        1.0568705714   -2.0587444139   -1.1721856070
H        0.7859653509    0.8310347346   -2.4709369439
13   
Iteration 214 Energy -340.92352162
C       -1.9472546552    1.9762515108   -0.5164138940
N       -1.1824023947    1.3202973113    0.0966576330
C        0.9906895624    0.1767279008   -0.1139721280
C       -0.2442095357    0.4890957956    0.7774157331
C       -0.9505507299   -0.8042594592    1.2146666187
N       -0.9476141167   -1.2270637684    2.3887333790
C        1.0056718722   -0.9903643794   -1.0624605103
C        0.8735601637    0.1761088865   -1.6102102343
H        1.9208733449    0.4950343859    0.3643577438
H        0.0874631642    1.0125268408    1.6784621527
H       -1.4488273538   -1.3637036945    0.4078782493
H        1.0874555759   -2.0637584895   -1.1445549393
H        0.7551451027    0.8031071593   -2.4805598038
13   
Iteration 213 Energy -340.92346020
C       -1.9412090142    1.9958476927   -0.4975885180
N       -1.1779059301    1.3317623429    0.1086432339
C        0.9907947875    0.1844319724   -0.1169885609
C       -0.2423882635    0.4888966334    0.7792236864
C       -0.9542304136   -0.8063546683    1.2017161413
N       -0.9556494003   -1.2400981102    2.3717949237
C        1.0176282831   -0.9947097100   -1.0505480481
C        0.8620973554    0.1622898133   -1.6120453628
H        1.9194053443    0.5252364653    0.3487367470
H        0.0912496017    1.0001833943    1.6864947008
H       -1.4532459658   -1.3560621001    0.3887751449
H        1.1167102208   -2.0676036110   -1.1189549652
H        0.7267433949    0.7761798854   -2.4892591230
13   
Iteration 212 Energy -340.92342288
C       -1.9371009009    2.0095399085   -0.4839548094
N       -1.1748184737    1.3397339174    0.1172659938
C        0.9907058590    0.1898527400   -0.1192749473
C       -0.2411270532    0.4886989230    0.7804328083
C       -0.9568224004   -0.8077563964    1.1926072538
N       -0.9613733111   -1.2490107418    2.3598700850
C        1.0262167633   -0.9975755803   -1.0422185583
C        0.8541296672    0.1523715505   -1.6132782150
H        1.9178568419    0.5465454606    0.3373871716
H        0.0940073272    0.9913581419    1.6919670620
H       -1.4563196979   -1.3506684303    0.3754547563
H        1.1376957056   -2.0698174795   -1.1010530586
H        0.7069496729    0.7567279865   -2.4952055422
13   
Iteration 211 Energy -340.92339964
C       -1.9342645205    2.0191473552   -0.4741487448
N       -1.1726754459    1.3453005524    0.1234371922
C        0.9905604512    0.1936681386   -0.1209703179
C       -0.2402485091    0.4885283494    0.7812560435
C       -0.9586540968   -0.8087097625    1.1861973884
N       -0.9654759702   -1.2551341248    2.3514847497
C        1.0323582067   -0.9994995573   -1.0363836593
C        0.8485583015    0.1452884813   -1.6141223416
H        1.9165084018    0.5615778071    0.3292046399
H        0.0960042896    0.9850686590    1.6957320420
H       -1.4584477636   -1.3468827184    0.3661312528
H        1.1526911558   -2.0711303451   -1.0885078105
H        0.6930854995    0.7427771652   -2.4993104344
13   
Iteration 210 Energy -340.92338478
C       -1.9322881132    2.0259060386   -0.4671315778
N       -1.1711777850    1.3491986307    0.1278369772
C        0.9904166336    0.1963534473   -0.1222108643
C       -0.2396317813    0.4883880688    0.7818201425
C       -0.9599506401   -0.8093649240    1.1816849226
N       -0.9684074074   -1.2593698052    2.3455858499
C        1.0367376063   -1.0008075355   -1.0322891944
C        0.8446458639    0.1402446980   -1.6147051647
H        1.9154235197    0.5721937775    0.3233379337
H        0.0974406191    0.9805933002    1.6983402593
H       -1.4599333051   -1.3442205397    0.3595925502
H        1.1633790049   -2.0719293927   -1.0797014466
H        0.6833457846    0.7328142359   -2.5021603876
13   
Iteration 209 Energy -340.92337505
C       -1.9309033121    2.0306682762   -0.4621288891
N       -1.1701270852    1.3519357989    0.1309644378
C        0.9902939846    0.1982461807   -0.1231080671
C       -0.2391993194    0.4882797406    0.7822113307
C       -0.9608691774   -0.8098192936    1.1785050268
N       -0.9704944445   -1.2623171419    2.3414319774
C        1.0398545688   -1.0017066012   -1.0294103818
C        0.8418922044    0.1366615162   -1.6151113198
H        1.9145926617    0.5796884492    0.3191499294
H        0.0984688363    0.9774168047    1.7001572567
H       -1.4609771012   -1.3423466398    0.3549969042
H        1.1709807465   -2.0724302218   -1.0735075676
H        0.6764874375    0.7257231320   -2.5041506376
13   
Iteration 208 Energy -340.92336856
C       -1.9299312673    2.0340270557   -0.4585705548
N       -1.1693884230    1.3538605754    0.1331836998
C        0.9901969135    0.1995803775   -0.1237534525
C       -0.2388948821    0.4881974129    0.7824824741
C       -0.9615196193   -0.8101357496    1.1762629727
N       -0.9719748839   -1.2643781390    2.3385039365
C        1.0420692068   -1.0023289868   -1.0273836129
C        0.8399514656    0.1341186105   -1.6153948153
H        1.9139705745    0.5849856320    0.3161682787
H        0.0992017372    0.9751631409    1.7014274435
H       -1.4617145118   -1.3410241675    0.3517637721
H        1.1763788926   -2.0727502984   -1.0691461314
H        0.6716547971    0.7206845364   -2.5055440105
13   
Iteration 207 Energy -340.92336417
C       -1.9292477085    2.0363978698   -0.4560437678
N       -1.1688684391    1.3552165637    0.1347563495
C        0.9901228265    0.2005223275   -0.1242146752
C       -0.2386808749    0.4881369990    0.7826723217
C       -0.9619805463   -0.8103574854    1.1746806753
N       -0.9730234754   -1.2658241565    2.3364383395
C        1.0436408980   -1.0027628941   -1.0259547869
C        0.8385824318    0.1323165425   -1.6155944324
H        1.9135152124    0.5887267873    0.3140504321
H        0.0997229405    0.9735671048    1.7023186954
H       -1.4622372136   -1.3400905089    0.3494853529
H        1.1802088024   -2.0729600860   -1.0660702938
H        0.6682451464    0.7171109363   -2.5065242102
13   
Iteration 206 Energy -340.92336115
C       -1.9287667584    2.0380720237   -0.4542515670
N       -1.1685017857    1.3561723589    0.1358701525
C        0.9900679744    0.2011871333   -0.1245438413
C       -0.2385297774    0.4880923532    0.7828047193
C       -0.9623068273   -0.8105129380    1.1735636974
N       -0.9737646308   -1.2668412416    2.3349802245
C        1.0447555100   -1.0030658807   -1.0249470161
C        0.8376164489    0.1310399908   -1.6157344464
H        1.9131838628    0.5913720254    0.3125484340
H        0.1000925712    0.9724369099    1.7029445750
H       -1.4626081709   -1.3394304777    0.3478792205
H        1.1829227094   -2.0730996990   -1.0639008434
H        0.6658388739    0.7145774418   -2.5072133091
13   
Iteration 205 Energy -340.92335907
C       -1.9284276863    2.0392547344   -0.4529811828
N       -1.1682433526    1.3568472437    0.1366584168
C        0.9900276550    0.2016569443   -0.1247776923
C       -0.2384236189    0.4880605450    0.7828980285
C       -0.9625380297   -0.8106224174    1.1727747587
N       -0.9742889277   -1.2675578240    2.3339500578
C        1.0455453840   -1.0032783767   -1.0242357099
C        0.8369343359    0.1301366072   -1.6158335020
H        1.9129458211    0.5932410982    0.3114835032
H        0.1003549019    0.9716368768    1.7033853669
H       -1.4628713544   -1.3389635725    0.3467458310
H        1.1848455534   -2.0731958321   -1.0623688113
H        0.6641393184    0.7127839731   -2.5076990645
13   
Iteration 204 Energy -340.92335762
C       -1.9281890401    2.0400905813   -0.4520812656
N       -1.1680607690    1.3573235654    0.1372165932
C        0.9899985518    0.2019888316   -0.1249440198
C       -0.2383483483    0.4880373653    0.7829634879
C       -0.9627016659   -0.8106992850    1.1722174252
N       -0.9746591832   -1.2680633096    2.3332226561
C        1.0461046719   -1.0034275132   -1.0237335682
C        0.8364523996    0.1294973388   -1.6159031924
H        1.9127748721    0.5945629986    0.3107297400
H        0.1005405815    0.9710710459    1.7036960542
H       -1.4630586183   -1.3386332981    0.3459455843
H        1.1862073487   -2.0732623697   -1.0612877679
H        0.6629391992    0.7115140486   -2.5080417270
13   
Iteration 203 Energy -340.92335660
C       -1.9280204271    2.0406810676   -0.4514442970
N       -1.1679319552    1.3576601057    0.1376111098
C        0.9899776790    0.2022233535   -0.1250617797
C       -0.2382955347    0.4880208329    0.7830097004