13   
Iteration 1 Energy -340.92655399
C       -2.1792726370    1.2896367629   -0.9075770506
N       -1.3451046166    0.9336024360   -0.1537837552
C        0.9082274751   -0.0604024053   -0.1114253993
C       -0.3098748730    0.4551812013    0.6940481632
C       -0.8532036573   -0.6761723110    1.5830570165
N       -0.6239635452   -0.7505640909    2.8080036195
C        0.7729260763   -0.7525302509   -1.4349477251
C        1.2374872168    0.4573134627   -1.4795008597
H        1.7067449124   -0.3464624035    0.5810289363
H        0.0141581680    1.2727883225    1.3468971982
H       -1.4306765788   -1.4544642732    1.0608941439
H        0.4857667187   -1.6609784541   -1.9428918183
H        1.6157982676    1.2958487630   -2.0442787085
13   
Iteration 1 Energy -340.92257160
C       -2.5923045715    1.6229571280   -0.4185529420
N       -1.6564345999    1.1000961463    0.0711745217
C        0.6793152619    0.5933835418   -0.3789123636
C       -0.4927781466    0.4891022034    0.6205716701
C       -0.7596223783   -0.9524852116    1.0609460777
N       -1.8336890194   -1.5760143663    0.9318836733
C        1.7594823165   -0.4466562362   -0.4847761597
C        0.9024414936   -0.4255401050   -1.4580050988
H        0.9143945516    1.6449274028   -0.5746097861
H       -0.2255300709    1.0486584105    1.5291813401
H        0.1034520353   -1.4429909617    1.5382839568
H        2.6519411734   -0.8544454904   -0.0334191425
H        0.5497085414   -0.8000703398   -2.4068064126
