13   
Iteration 0 Energy -340.92389196
C       -2.3732654943    0.3438027855   -1.2635295025
N       -1.5457090456    0.4061998129   -0.4300578871
C        0.8900256051    0.2188863381   -0.0908735206
C       -0.5055114558    0.4864696888    0.5300527299
C       -0.7325276974   -0.4673023283    1.7100597793
N       -1.6780085290   -1.2733729777    1.8408718143
C        1.1205458509   -0.8382776118   -1.1280337490
C        1.1588888171    0.3869114861   -1.5569300790
H        1.6731086500    0.4471923806    0.6401550376
H       -0.5058421791    1.5055233851    0.9423242651
H        0.0457738835   -0.4120431824    2.4883022380
H        1.1802470769   -1.8983953765   -1.3190193887
H        1.2722745176    1.0944055995   -2.3633217374
13   
Iteration 1 Energy -340.92392041
C       -2.3624533909    0.3335062518   -1.2688689335
N       -1.5380628240    0.4034470118   -0.4297236847
C        0.8927207430    0.2208562059   -0.0877536768
C       -0.5015688812    0.4891442272    0.5324129030
C       -0.7309399615   -0.4672608301    1.7093216712
N       -1.6791012162   -1.2719996580    1.8248888283
C        1.1134211923   -0.8366821088   -1.1248923131
C        1.1523160763    0.3866469163   -1.5542466377
H        1.6791775029    0.4480701058    0.6414302478
H       -0.5029417534    1.5087816809    0.9444359474
H        0.0448764419   -0.4134143355    2.4903289848
H        1.1686791406   -1.8978139486   -1.3153978215
H        1.2625940534    1.0938980097   -2.3622532727
13   
Iteration 2 Energy -340.92392681
C       -2.3637845038    0.3344549998   -1.2695138906
N       -1.5404169479    0.4061823496   -0.4286137603
C        0.8900650963    0.2201858442   -0.0897247132
C       -0.5033844254    0.4905581707    0.5326090548
C       -0.7336946286   -0.4681118466    1.7083868904
N       -1.6778355274   -1.2762751009    1.8316383725
C        1.1139672950   -0.8370831971   -1.1262110326
C        1.1549818975    0.3856026473   -1.5550478749
H        1.6751520440    0.4462899995    0.6415617354
H       -0.5033643181    1.5099712368    0.9455424917
H        0.0452168641   -0.4112962532    2.4858449959
H        1.1705279127   -1.8983997039   -1.3161053166
H        1.2699586316    1.0931612361   -2.3623461783
13   
Iteration 3 Energy -340.92393166
C       -2.3637733054    0.3343857913   -1.2698981922
N       -1.5415733999    0.4070685306   -0.4285384637
C        0.8901987580    0.2199780014   -0.0898220668
C       -0.5037334812    0.4904183056    0.5323985316
C       -0.7331263891   -0.4679860856    1.7089187569
N       -1.6782524961   -1.2754058433    1.8285015726
C        1.1139509846   -0.8376842162   -1.1260015057
C        1.1548817759    0.3852864219   -1.5552389419
H        1.6752531605    0.4461064983    0.6413339667
H       -0.5035648847    1.5095493383    0.9455769242
H        0.0448270608   -0.4119630266    2.4875672925
H        1.1708002870   -1.8989249348   -1.3153170396
H        1.2702341257    1.0927507579   -2.3623474747
13   
Iteration 4 Energy -340.92393424
C       -2.3597078118    0.3331176390   -1.2737925935
N       -1.5410959542    0.4085973951   -0.4295322779
C        0.8906794978    0.2197974819   -0.0890663431
C       -0.5036952518    0.4907095909    0.5321430440
C       -0.7336739008   -0.4682762846    1.7084316135
N       -1.6779151127   -1.2768403869    1.8264980995
C        1.1117817661   -0.8383033358   -1.1252111529
C        1.1534837601    0.3848846595   -1.5547186998
H        1.6761898394    0.4452050978    0.6417934427
H       -0.5031178858    1.5094571122    0.9459209767
H        0.0431144488   -0.4113008791    2.4881809443
H        1.1676610615   -1.8995970138   -1.3140288141
H        1.2694211576    1.0923277373   -2.3616490740
13   
Iteration 5 Energy -340.92393646
C       -2.3561939374    0.3315047279   -1.2771187764
N       -1.5420666635    0.4114691507   -0.4289633934
C        0.8895117961    0.2189736361   -0.0894019307
C       -0.5044544752    0.4915853692    0.5324529541
C       -0.7350697322   -0.4683205268    1.7079993129
N       -1.6788742848   -1.2778084994    1.8222998728
C        1.1102381290   -0.8396649443   -1.1250446739
C        1.1530829394    0.3833324381   -1.5549616872
H        1.6747649900    0.4437527333    0.6418734443
H       -0.5023649358    1.5098018476    0.9473903787
H        0.0402815014   -0.4110550985    2.4891921071
H        1.1666672196   -1.9010922447   -1.3128779736
H        1.2719512126    1.0906213348   -2.3615926596
13   
Iteration 6 Energy -340.92393727
C       -2.3538553109    0.3311772941   -1.2796870205
N       -1.5421844471    0.4130190215   -0.4291730102
C        0.8889792107    0.2183784566   -0.0892995454
C       -0.5048542417    0.4918719702    0.5324780055
C       -0.7368021182   -0.4683862462    1.7072968004
N       -1.6798144728   -1.2789625908    1.8211536979
C        1.1092171215   -0.8405062181   -1.1247752986
C        1.1529436551    0.3822826023   -1.5548631172
H        1.6742870251    0.4428769670    0.6420417039
H       -0.5017228434    1.5099328888    0.9479501513
H        0.0375308717   -0.4106058866    2.4894164775
H        1.1656139317   -1.9020161783   -1.3124085923
H        1.2733477853    1.0893545487   -2.3615155286
13   
Iteration 7 Energy -340.92393738
C       -2.3529462870    0.3319045554   -1.2810367057
N       -1.5421395555    0.4137860973   -0.4295983527
C        0.8886526096    0.2177889071   -0.0891278586
C       -0.5051281960    0.4918755206    0.5324039884
C       -0.7382102267   -0.4683465655    1.7067785736
N       -1.6811037770   -1.2792389870    1.8201574433
C        1.1090489314   -0.8412598275   -1.1244244365
C        1.1529623589    0.3813826683   -1.5547124136
H        1.6739609935    0.4423948729    0.6421777269
H       -0.5013712448    1.5099340955    0.9480072091
H        0.0352725067   -0.4106301080    2.4897211317
H        1.1655460205   -1.9027904080   -1.3120601963
H        1.2738244304    1.0882152300   -2.3615362284
