13   
IRC product Energy -340.92257160
C       -2.2131870660    2.1041292850    0.6437050978
N       -1.4872228870    1.1846300724    0.7724129318
C        0.5539788986    0.2407609527   -0.1536964848
C       -0.5729711659    0.0987709711    0.8919967324
C       -1.2818750926   -1.2553674352    0.8079268143
N       -2.5013506123   -1.4381905274    0.6116619848
C        1.2405439205   -0.9395573580   -0.7822886400
C        0.4200554709   -0.2921726258   -1.5502926968
H        1.1114321378    1.1677059525    0.0175427183
H       -0.1252500059    0.1549600115    1.8952332060
H       -0.6146653781   -2.1206867521    0.9472043690
H        1.9617520005   -1.7309733580   -0.6407979893
H       -0.0497695213   -0.1461646840   -2.5109507631
