13   
Iteration 0 Energy -340.92257160
C       -2.2131870660    2.1041292850    0.6437050978
N       -1.4872228870    1.1846300724    0.7724129318
C        0.5539788986    0.2407609527   -0.1536964848
C       -0.5729711659    0.0987709711    0.8919967324
C       -1.2818750926   -1.2553674352    0.8079268143
N       -2.5013506123   -1.4381905274    0.6116619848
C        1.2405439205   -0.9395573580   -0.7822886400
C        0.4200554709   -0.2921726258   -1.5502926968
H        1.1114321378    1.1677059525    0.0175427183
H       -0.1252500059    0.1549600115    1.8952332060
H       -0.6146653781   -2.1206867521    0.9472043690
H        1.9617520005   -1.7309733580   -0.6407979893
H       -0.0497695213   -0.1461646840   -2.5109507631
13   
Iteration 1 Energy -340.92257160
C       -2.2129276008    2.1045412171    0.6431526434
N       -1.4870951631    1.1849570663    0.7719989030
C        0.5541174216    0.2407963166   -0.1537894285
C       -0.5729957499    0.0989880727    0.8917499892
C       -1.2820605261   -1.2550614946    0.8076149461
N       -2.5015282401   -1.4377597359    0.6111844706
C        1.2406115750   -0.9396412607   -0.7822353387
C        0.4203195836   -0.2921767409   -1.5503820238
H        1.1116698406    1.1676736377    0.0174925434
H       -0.1254126955    0.1551548068    1.8950502613
H       -0.6149674019   -2.1204501507    0.9470260980
H        1.9616910669   -1.7311490505   -0.6406100250
H       -0.0493505495   -0.1461457760   -2.5111119748
