13   
step_02 start
C       -0.8796316529    1.7076029401    0.4836125966
N       -1.4729191736    2.6825301629    0.2743869516
C        0.9354786726    0.3114545471   -0.4574243753
C       -0.0655283235    0.5057583940    0.7134261488
C       -0.9181817009   -0.7404158607    0.9656223287
N       -2.1660696081   -0.7930134029    0.9530751764
C        1.3774548748   -1.0437635120   -0.9329650625
C        0.5619751049   -0.4096469543   -1.7180122108
H        1.6287010363    1.1573586347   -0.5073086691
H        0.5168181512    0.6745571049    1.6322440990
H       -0.3365894319   -1.6515852266    1.1778408129
H        1.9957252621   -1.9051651741   -0.7271363399
H       -0.0000155338   -0.3514683266   -2.6378449392
13   
step_02 end
C       -1.3596517325    1.4382383441    0.4952462239
N       -1.5867864920    2.6307440207    0.2538813289
C        0.8150359540    0.4130191376   -0.5985183388
C       -0.0788571405    0.5297523209    0.6260854484
C       -1.1735812950   -0.4867922082    0.8507271273
N       -2.2237837274    0.2661123602    0.7509395428
C        1.3311324016   -0.9205075260   -1.0800948120
C        0.4040844657   -0.3835327683   -1.8103187806
H        1.4339326057    1.3058826657   -0.7358442351
H        0.5002928776    0.7759820179    1.5254795627
H       -1.1808065691   -1.5567925526    1.0495316267
H        2.0313761397   -1.7225926538   -0.8975952331
H       -0.2321767342   -0.4060533944   -2.6825915639
