13   
IRC product Energy -340.97576452
C       -2.3431287831   -0.5757044694    1.9147269256
N       -3.2312945937    0.0182796866    2.4043571408
C        0.8324549298    1.0046714541   -0.5475321531
C       -0.2553124874    0.4868775264    0.2944910248
C       -0.4213642665   -0.8469684045    0.6595633140
N       -1.3963520952   -1.3540252036    1.4196059847
C        2.2049865354    0.3324191737   -0.5848322967
C        1.4811047988    0.1449264066   -1.6331219151
H        0.7859551377    2.0833632553   -0.7090498329
H       -0.9872956360    1.2056096339    0.6598558725
H        0.2975563090   -1.5854415731    0.3095657152
H        3.0975209722    0.1693321419    0.0005363160
H        1.2994250576   -0.2957902417   -2.6019187924
