13   
Iteration 0 Energy -340.97576452
C       -2.3431287831   -0.5757044694    1.9147269256
N       -3.2312945937    0.0182796866    2.4043571408
C        0.8324549298    1.0046714541   -0.5475321531
C       -0.2553124874    0.4868775264    0.2944910248
C       -0.4213642665   -0.8469684045    0.6595633140
N       -1.3963520952   -1.3540252036    1.4196059847
C        2.2049865354    0.3324191737   -0.5848322967
C        1.4811047988    0.1449264066   -1.6331219151
H        0.7859551377    2.0833632553   -0.7090498329
H       -0.9872956360    1.2056096339    0.6598558725
H        0.2975563090   -1.5854415731    0.3095657152
H        3.0975209722    0.1693321419    0.0005363160
H        1.2994250576   -0.2957902417   -2.6019187924
13   
Iteration 1 Energy -340.97576450
C       -2.3417132743   -0.5780417799    1.9162377409
N       -3.2288915635    0.0148372095    2.4089692044
C        0.8323634772    1.0052136650   -0.5482423299
C       -0.2561052083    0.4875722970    0.2929927897
C       -0.4219523779   -0.8464616073    0.6573420295
N       -1.3957829373   -1.3552070149    1.4177226641
C        2.2046584014    0.3324535300   -0.5835038266
C        1.4819033212    0.1444828228   -1.6325048279
H        0.7863290184    2.0838364368   -0.7103128386
H       -0.9883753223    1.2060730978    0.6580597835
H        0.2969910735   -1.5842400818    0.3061998025
H        3.0964182649    0.1693960579    0.0030558588
H        1.3011441122   -0.2969387957   -2.6011556528
