13   
IRC product Energy -340.97576441
C       -2.5962395751    1.4452723381    0.9892228690
N       -2.8839588947    2.5374743280    1.3143715965
C        1.2111549829    0.0655036507   -0.5129275597
C       -0.0762451216    0.5558295452   -0.0002722215
C       -1.2138197607   -0.2253463403    0.1881533679
N       -2.3987838066    0.1827613101    0.6513716482
C        1.6646511422   -1.3769634157   -0.2869350734
C        1.2876744610   -1.1092099715   -1.4887167324
H        1.9786944319    0.8387725396   -0.5817405910
H       -0.1418771793    1.6131882656    0.2515450604
H       -1.1745500710   -1.2852791467   -0.0558173903
H        2.0129091768   -2.0581755376    0.4749833054
H        1.0767600289   -1.3930204494   -2.5089103319
