13   
Iteration 0 Energy -340.97576441
C       -2.5962395751    1.4452723381    0.9892228690
N       -2.8839588947    2.5374743280    1.3143715965
C        1.2111549829    0.0655036507   -0.5129275597
C       -0.0762451216    0.5558295452   -0.0002722215
C       -1.2138197607   -0.2253463403    0.1881533679
N       -2.3987838066    0.1827613101    0.6513716482
C        1.6646511422   -1.3769634157   -0.2869350734
C        1.2876744610   -1.1092099715   -1.4887167324
H        1.9786944319    0.8387725396   -0.5817405910
H       -0.1418771793    1.6131882656    0.2515450604
H       -1.1745500710   -1.2852791467   -0.0558173903
H        2.0129091768   -2.0581755376    0.4749833054
H        1.0767600289   -1.3930204494   -2.5089103319
13   
Iteration 1 Energy -340.97576472
C       -2.5952608247    1.4446487611    0.9876934904
N       -2.8813347823    2.5370815046    1.3135162677
C        1.2103556107    0.0657561728   -0.5124836271
C       -0.0775880557    0.5543163231    0.0003803151
C       -1.2147432620   -0.2276800888    0.1880314848
N       -2.3994702279    0.1816370057    0.6507136825
C        1.6656456691   -1.3762188438   -0.2870643646
C        1.2881740019   -1.1085264879   -1.4887091176
H        1.9769587120    0.8399753017   -0.5810403327
H       -0.1442711225    1.6115229535    0.2525936241
H       -1.1755204889   -1.2875834521   -0.0560729330
H        2.0148458965   -2.0572671505    0.4745696848
H        1.0774849801   -1.3922643405   -2.5089708558
