13   
IRC reactant Energy -340.96809906
C       -1.8267999719   -1.3048800922   -0.0900969344
N       -2.4421716725   -1.3901772733   -1.0916744965
C        0.5695383829    1.0269017448   -0.3410917892
C        0.3516744704    0.5614422822    1.0364459568
C       -0.3727888600   -0.4991426913    1.5933159779
N       -1.2744725008   -1.3433160472    1.0964993140
C        1.1951767178    0.0954526465   -1.3950129293
C       -0.0316276564    0.4245903559   -1.6008115243
H        0.8785307928    2.0760269350   -0.3680958444
H        0.9164682028    1.1254726642    1.7791300840
H       -0.1781874783   -0.6806427838    2.6504257055
H        2.1070866538   -0.4260141049   -1.6396060099
H       -0.9451808485    0.3641625207   -2.1703387010
