13   
Iteration 0 Energy -340.96809906
C       -1.8267999719   -1.3048800922   -0.0900969344
N       -2.4421716725   -1.3901772733   -1.0916744965
C        0.5695383829    1.0269017448   -0.3410917892
C        0.3516744704    0.5614422822    1.0364459568
C       -0.3727888600   -0.4991426913    1.5933159779
N       -1.2744725008   -1.3433160472    1.0964993140
C        1.1951767178    0.0954526465   -1.3950129293
C       -0.0316276564    0.4245903559   -1.6008115243
H        0.8785307928    2.0760269350   -0.3680958444
H        0.9164682028    1.1254726642    1.7791300840
H       -0.1781874783   -0.6806427838    2.6504257055
H        2.1070866538   -0.4260141049   -1.6396060099
H       -0.9451808485    0.3641625207   -2.1703387010
13   
Iteration 1 Energy -340.96809897
C       -1.8262576440   -1.3043444108   -0.0905070069
N       -2.4412990300   -1.3894719244   -1.0923045690
C        0.5697477075    1.0269737003   -0.3408792715
C        0.3519194857    0.5615241427    1.0366400696
C       -0.3726470550   -0.4990031968    1.5934250635
N       -1.2743137186   -1.3429923736    1.0962596534
C        1.1949848529    0.0953482253   -1.3947646956
C       -0.0318208371    0.4246135169   -1.6003727918
H        0.8788204282    2.0760691322   -0.3680620740
H        0.9169456991    1.1253537764    1.7792950566
H       -0.1780779434   -0.6807352185    2.6505012883
H        2.1067859706   -0.4263106600   -1.6394384227
H       -0.9455247541    0.3642474186   -2.1696998486
