13   
Iteration 1 Energy -340.92655393
C       -2.1760411510    1.3242500989   -0.8978831944
N       -1.3416157472    0.9686037285   -0.1441790790
C        0.9119036564   -0.0249635511   -0.1026147374
C       -0.3060579929    0.4903008647    0.7032771597
C       -0.8488791956   -0.6413322362    1.5922946246
N       -0.6191954075   -0.7162101298    2.8171258676
C        0.7763769657   -0.7163696075   -1.4265045961
C        1.2410750444    0.4934335244   -1.4704562510
H        1.7104340488   -0.3114660376    0.5896387215
H        0.0180112695    1.3078364310    1.3561897032
H       -1.4264880079   -1.4194857590    1.0700889860
H        0.4890335271   -1.6245497287   -1.9348315459
H        1.6194112755    1.3322689345   -2.0347818693
13   
Iteration 1 Energy -340.92257155
C       -2.5925147339    1.6227026393   -0.4178798847
N       -1.6565230092    1.0999117850    0.0716897805
C        0.6791798756    0.5933352477   -0.3788143994
C       -0.4927242589    0.4890083336    0.6208878077
C       -0.7593932813   -0.9525811991    1.0613541805
N       -1.8334816262   -1.5761072474    0.9324656248
C        1.7594118508   -0.4466198558   -0.4848647239
C        0.9021807931   -0.4255952087   -1.4579271909
H        0.9141449162    1.6448916492   -0.5745792441
H       -0.2253450086    1.0486052492    1.5294336627
H        0.1037775217   -1.4430508369    1.5385588001
H        2.6519912627   -0.8543266028   -0.0336716763
H        0.5492956980   -0.8001739535   -2.4066527371
