13   
Iteration 6 Energy -340.95257241
C       -2.1893265111    1.3404786014   -0.8806111970
N       -1.3461300875    0.9673733954   -0.1490965240
C        0.9119583059   -0.0262204338   -0.1040460117
C       -0.3075219906    0.4908657594    0.6985460951
C       -0.8529728202   -0.6357294639    1.5919705009
N       -0.6287623507   -0.6997475264    2.8189188719
C        0.7836318687   -0.7196781127   -1.4293481941
C        1.2484326954    0.4919640066   -1.4717886307
H        1.7087340753   -0.3109634752    0.5894517514
H        0.0151815993    1.3130943179    1.3457355530
H       -1.4317077700   -1.4200463372    1.0802549023
H        0.5006369206   -1.6270740228   -1.9398376066
H        1.6292476312    1.3289666446   -2.0357683288
13   
Iteration 7 Energy -340.94852907
C       -2.5909678514    1.6352316598   -0.4167753427
N       -1.6583051700    1.1006679637    0.0607069422
C        0.6795951821    0.5920745708   -0.3819836825
C       -0.4965289185    0.4866718557    0.6136307058
C       -0.7648936201   -0.9520353971    1.0596713265
N       -1.8377077440   -1.5794565501    0.9344576605
C        1.7620735032   -0.4483334375   -0.4838829960
C        0.9088452898   -0.4255456946   -1.4627060946
H        0.9159763460    1.6427264394   -0.5756231174
H       -0.2328629103    1.0478433157    1.5217906505
H        0.0945015626   -1.4437936052    1.5420605051
H        2.6541074173   -0.8550275277   -0.0325123730
H        0.5620687508   -0.7985172152   -2.4135856103
