13   
Climbing Image - Chain 6 Image 5 Energy  -340.9228061666 (+2.352 kcal/mol) RMSGrad 0.039 eV/Ang
C       -2.6031326274    0.5120004248   -0.8687439910
N       -1.6229186609    0.4738391731   -0.2137140280
C        0.7060388576   -0.3537452762   -0.2675503749
C       -0.4135011346    0.3745437634    0.5369609947
C       -0.6879614592   -0.3914487586    1.8392462873
N       -0.2995321164    0.0003193799    2.9599535345
C        0.7487829149   -0.2864446002   -1.7665835504
C        1.6390608134    0.4239669836   -1.1475392069
H        1.0649966728   -1.2486920649    0.2499638089
H       -0.0925244926    1.3879664666    0.8002770081
H       -1.2192478514   -1.3496155006    1.7264853515
H        0.3018075493   -0.6462031741   -2.6806075700
H        2.4781724711    1.1031254724   -1.1679384033
