13   
Iteration 0 Energy -340.92280617
C       -2.6031326274    0.5120004248   -0.8687439910
N       -1.6229186609    0.4738391731   -0.2137140280
C        0.7060388576   -0.3537452762   -0.2675503749
C       -0.4135011346    0.3745437634    0.5369609947
C       -0.6879614592   -0.3914487586    1.8392462873
N       -0.2995321164    0.0003193799    2.9599535345
C        0.7487829149   -0.2864446002   -1.7665835504
C        1.6390608134    0.4239669836   -1.1475392069
H        1.0649966728   -1.2486920649    0.2499638089
H       -0.0925244926    1.3879664666    0.8002770081
H       -1.2192478514   -1.3496155006    1.7264853515
H        0.3018075493   -0.6462031741   -2.6806075700
H        2.4781724711    1.1031254724   -1.1679384033
13   
Iteration 1 Energy -340.92286383
C       -2.5887223889    0.5121017082   -0.8787305495
N       -1.6132059855    0.4685494268   -0.2173682938
C        0.7106356741   -0.3569526103   -0.2664375640
C       -0.4079880565    0.3689591879    0.5394476830
C       -0.6917992189   -0.3912004543    1.8435156096
N       -0.3095581824    0.0051098774    2.9640255948
C        0.7430748183   -0.2832928309   -1.7644060109
C        1.6363195237    0.4263410332   -1.1488673665
H        1.0744577913   -1.2524518961    0.2463648133
H       -0.0864420085    1.3818952847    0.8021730329
H       -1.2264702950   -1.3475400338    1.7316716949
H        0.2879832433   -0.6407359989   -2.6752959333
H        2.4731725621    1.1082383912   -1.1708797962
13   
Iteration 2 Energy -340.92290845
C       -2.5743714797    0.5140382977   -0.8806885576
N       -1.6032880780    0.4592697612   -0.2137156820
C        0.7185661996   -0.3623320531   -0.2618288544
C       -0.3995006369    0.3606979303    0.5463419454
C       -0.6882549431   -0.3950986985    1.8516108624
N       -0.3248849769    0.0139705833    2.9737624605
C        0.7371168041   -0.2814884191   -1.7599811059
C        1.6370053558    0.4237362911   -1.1498790640
H        1.0848410553   -1.2605130553    0.2441170553
H       -0.0806794980    1.3751130235    0.8064633731
H       -1.2176923486   -1.3543915137    1.7404846844
H        0.2629126883   -0.6276773779   -2.6654099907
H        2.4708786883    1.1091955998   -1.1747253429
13   
Iteration 3 Energy -340.92292199
C       -2.5603998260    0.5116240628   -0.7816710514
N       -1.5840310525    0.4676761700   -0.1215818906
C        0.7345828518   -0.3617029436   -0.1676992524
C       -0.3737237557    0.3852736054    0.6306468793
C       -0.6550618276   -0.3349871604    1.9574020073
N       -0.3323961462    0.1306303744    3.0698928763
C        0.7433267557   -0.3144720375   -1.6676952726
C        1.6522229908    0.3977358444   -1.0796414322
H        1.0978013423   -1.2521675223    0.3540664526
H       -0.0509253507    1.4054210386    0.8619259686
H       -1.1454194421   -1.3173882213    1.8722513880
H        0.2507082616   -0.6662333969   -2.5610686660
H        2.4867507786    1.0813686367   -1.1248281136
13   
Iteration 4 Energy -340.92292194
C       -2.5817658708    0.5280830399   -0.7827260238
N       -1.6160786923    0.4705958828   -0.1081655892
C        0.6981794101   -0.3723121859   -0.1300047969
C       -0.4187972413    0.3690941947    0.6620473560
C       -0.7256832645   -0.3703416124    1.9724633119
N       -0.4045754989    0.0681744712    3.0963484164
C        0.7259748040   -0.3106931981   -1.6291001380
C        1.6283055273    0.3946093938   -1.0228153394
H        1.0535375893   -1.2679718846    0.3881775926
H       -0.0932929526    1.3833527959    0.9145203936
H       -1.2312085233   -1.3428098133    1.8646583515
H        0.2449839443   -0.6537998019   -2.5321161313
H        2.4644393007    1.0771715880   -1.0513096657
13   
Iteration 5 Energy -340.92292188
C       -2.6049808847    0.5407572140   -0.7376411300
N       -1.6541637394    0.4647034372   -0.0440620147
C        0.6533521002   -0.3956724542   -0.0342038374
C       -0.4733150352    0.3413603600    0.7480051985
C       -0.8113764578   -0.4173462150    2.0395439046
N       -0.5115490118    0.0009353884    3.1769458835
C        0.7103675234   -0.3101758885   -1.5313167847
C        1.6059723352    0.3784174507   -0.8965315106
H        0.9920764507   -1.3022298793    0.4761285654
H       -0.1454430139    1.3487784164    1.0237458644
H       -1.3198469329   -1.3849801977    1.9053130217
H        0.2442750195   -0.6350137940   -2.4487900308
H        2.4474198274    1.0550162601   -0.8979524180
13   
Iteration 6 Energy -340.92292194
C       -2.6078173687    0.5403136227   -0.7319150239
N       -1.6573275559    0.4650335545   -0.0377991197
C        0.6499685454   -0.3964705947   -0.0230794584
C       -0.4774595824    0.3427803000    0.7559321265
C       -0.8178343037   -0.4127952742    2.0487336087
N       -0.5207629554    0.0086081232    3.1857038060
C        0.7094151096   -0.3142765689   -1.5203113016
C        1.6043749371    0.3752120098   -0.8855917739
H        0.9875008312   -1.3020672625    0.4897378704
H       -0.1494515886    1.3506445106    1.0298742213
H       -1.3258079128   -1.3808878810    1.9159194310
H        0.2445917961   -0.6408101723   -2.4378267885
H        2.4461843520    1.0513635453   -0.8871173343
