3    
Iteration 1 Energy -92.35406017
C        0.0289895650   -0.0022648590    0.0010812278
N       -1.1058497683    0.0697208885   -0.0041205649
H        1.0770662614   -0.0687469332    0.0058852197
3    
Iteration 0 Energy -92.35406014
C        0.0289214590   -0.0022606082    0.0010809890
N       -1.1059243145    0.0697256600   -0.0041209421
H        1.0772089136   -0.0687559556    0.0058858357
3    
Iteration 48 Energy -92.35405997
C        0.0289119350   -0.0027335112    0.0015842037
N       -1.1058779143    0.0699500826   -0.0043623810
H        1.0771720374   -0.0685074752    0.0056240600
3    
Iteration 47 Energy -92.35405868
C        0.0288540957   -0.0022562310    0.0010805695
N       -1.1052674022    0.0696839231   -0.0041178594
H        1.0766193646   -0.0687185959    0.0058831726
3    
Iteration 46 Energy -92.35405258
C        0.0286606074   -0.0022436350    0.0010793399
N       -1.1045519646    0.0696383860   -0.0041144153
H        1.0760974152   -0.0686856547    0.0058809581
3    
Iteration 45 Energy -92.35404540
C        0.0284824908   -0.0022327355    0.0010789473
N       -1.1040744170    0.0696082855   -0.0041124300
H        1.0757979844   -0.0686664539    0.0058793654
3    
Iteration 44 Energy -92.35403885
C        0.0283339396   -0.0022232065    0.0010781537
N       -1.1037534895    0.0695878774   -0.0041109048
H        1.0756256080   -0.0686555747    0.0058786338
3    
Iteration 43 Energy -92.35403346
C        0.0282171566   -0.0022158299    0.0010776516
N       -1.1035357181    0.0695740786   -0.0041099226
H        1.0755246195   -0.0686491525    0.0058781536
3    
Iteration 42 Energy -92.35402928
C        0.0281286670   -0.0022102214    0.0010772509
N       -1.1033865315    0.0695646176   -0.0041092411
H        1.0754639227   -0.0686453000    0.0058778729
3    
Iteration 41 Energy -92.35402612
C        0.0280631842   -0.0022060716    0.0010769550
N       -1.1032834704    0.0695580820   -0.0041087707
H        1.0754263444   -0.0686429142    0.0058776985
3    
Iteration 40 Energy -92.35402379
C        0.0280154037   -0.0022030402    0.0010767354
N       -1.1032118526    0.0695535389   -0.0041084422
H        1.0754025070   -0.0686414025    0.0058775895
3    
Iteration 39 Energy -92.35402210
C        0.0279808768   -0.0022008506    0.0010765777
N       -1.1031618505    0.0695503674   -0.0041082133
H        1.0753870318   -0.0686404205    0.0058775183
3    
Iteration 38 Energy -92.35402087
C        0.0279559509   -0.0021992590    0.0010764523
N       -1.1031269410    0.0695481479   -0.0041080479
H        1.0753770482   -0.0686397927    0.0058774783
3    
Iteration 37 Energy -92.35401999
C        0.0279381695   -0.0021981311    0.0010763708
N       -1.1031023932    0.0695465908   -0.0041079354
H        1.0753702818   -0.0686393635    0.0058774473
3    
Iteration 36 Energy -92.35401999
C        0.0279381692   -0.0021981321    0.0010763719
N       -1.1031023928    0.0695465913   -0.0041079359
H        1.0753702816   -0.0686393630    0.0058774467
3    
Iteration 35 Energy -92.35404635
C        0.0280604097   -0.0059279688    0.0010863624
N       -1.1047054358    0.0714378438   -0.0041198177
H        1.0768510842   -0.0668007788    0.0058793380
3    
Iteration 34 Energy -92.35202946
C        0.0267267507   -0.0728195524    0.0012499401
N       -1.0975740904    0.1031978825   -0.0041687433
H        1.0710533978   -0.0316692339    0.0057646859
3    
Iteration 33 Energy -92.34871200
C        0.0132247124   -0.1131402039    0.0012923776
N       -1.0930915183    0.1220840902   -0.0041967672
H        1.0800728640   -0.0102347901    0.0057502723
3    
Iteration 32 Energy -92.34422363
C        0.0238681480   -0.1597886053    0.0014576413
N       -1.0747848699    0.1443888661   -0.0041723091
H        1.0511227800    0.0141088354    0.0055605506
3    
Iteration 31 Energy -92.33978807
C        0.0140604641   -0.1945690472    0.0015023820
N       -1.0673973931    0.1599426421   -0.0041790417
H        1.0535429871    0.0333355013    0.0055225424
3    
Iteration 30 Energy -92.33632427
C        0.0212814227   -0.2154509517    0.0015872263
N       -1.0517441591    0.1700216621   -0.0041353444
H        1.0306687945    0.0441383858    0.0053940008
3    
Iteration 29 Energy -92.31626969
C        0.0111654368   -0.3207099908    0.0018091679
N       -1.0010282128    0.2167828835   -0.0040295045
H        0.9900688341    0.1026362035    0.0050662193
3    
Iteration 28 Energy -92.29887527
C        0.0076259939   -0.3905425656    0.0019704408
N       -0.9525130440    0.2476073907   -0.0038930213
H        0.9450931083    0.1416442711    0.0047684631
3    
Iteration 27 Energy -92.28580080
C        0.0038342750   -0.4382893773    0.0020746415
N       -0.9140854306    0.2679940098   -0.0037747094
H        0.9104572137    0.1690044638    0.0045459506
3    
Iteration 26 Energy -92.27666201
C        0.0007670398   -0.4709459712    0.0021438139
N       -0.8846727685    0.2816067320   -0.0036791078
H        0.8841117868    0.1880483354    0.0043811766
3    
Iteration 25 Energy -92.27048121
C       -0.0016435949   -0.4934179454    0.0021900868
N       -0.8627517424    0.2907723882   -0.0036053743
H        0.8646013954    0.2013546534    0.0042611702
3    
Iteration 24 Energy -92.26634089
C       -0.0032252023   -0.5088335499    0.0022221483
N       -0.8465414837    0.2970280166   -0.0035495264
H        0.8499727441    0.2105146296    0.0041732607
3    
Iteration 23 Energy -92.26355879
C       -0.0041596861   -0.5194065314    0.0022448029
N       -0.8346555511    0.3013430165   -0.0035078880
H        0.8390212952    0.2167726111    0.0041089678
3    
Iteration 22 Energy -92.26167153
C       -0.0044887352   -0.5265723052    0.0022615027
N       -0.8259250970    0.3043672167   -0.0034769357
H        0.8306198904    0.2209141847    0.0040613158
3    
Iteration 21 Energy -92.26037896
C       -0.0046366245   -0.5315196970    0.0022733833
N       -0.8196319007    0.3064775760   -0.0034544480
H        0.8244745833    0.2237512172    0.0040269475
3    
Iteration 20 Energy -92.25948371
C       -0.0042918061   -0.5346893559    0.0022829390
N       -0.8149576460    0.3079992349   -0.0034376293
H        0.8194555101    0.2253992173    0.0040005730
3    
Iteration 19 Energy -92.25887330
C       -0.0034297237   -0.5364165965    0.0022911281
N       -0.8115254323    0.3090972364   -0.0034252307
H        0.8151612141    0.2260284563    0.0039799853
3    
Iteration 18 Energy -92.25665731
C       -0.0091582902   -0.5494267661    0.0022987535
N       -0.8017920540    0.3124622048   -0.0033907059
H        0.8111564022    0.2356736576    0.0039378352
3    
Iteration 17 Energy -92.25492828
C       -0.0071750472   -0.5552945895    0.0023223920
N       -0.7905192510    0.3158754426   -0.0033494947
H        0.7979003564    0.2381282431    0.0038729854
3    
Iteration 16 Energy -92.25370295
C       -0.0051970346   -0.5589036431    0.0023402845
N       -0.7823642146    0.3182936856   -0.0033195522
H        0.7877673073    0.2393190537    0.0038251504
3    
Iteration 15 Energy -92.25281585
C       -0.0033281365   -0.5609820608    0.0023538164
N       -0.7765460637    0.3200008980   -0.0032981442
H        0.7800802583    0.2396902590    0.0037902105
3    
Iteration 14 Energy -92.25216386
C       -0.0017009146   -0.5621269267    0.0023639142
N       -0.7724426405    0.3212023926   -0.0032830391
H        0.7743496132    0.2396336304    0.0037650076
3    
Iteration 13 Energy -92.25168320
C       -0.0003796522   -0.5627451156    0.0023713243
N       -0.7695681038    0.3220458372   -0.0032724621
H        0.7701538141    0.2394083747    0.0037470205
3    
Iteration 12 Energy -92.25133044
C        0.0006421305   -0.5630794880    0.0023766908
N       -0.7675581991    0.3226376243   -0.0032650718
H        0.7671221268    0.2391509598    0.0037342637
3    
Iteration 11 Energy -92.25107340
C        0.0014079244   -0.5632631251    0.0023805431
N       -0.7661517357    0.3230531376   -0.0032599038
H        0.7649498693    0.2389190837    0.0037252434
3    
Iteration 10 Energy -92.25088743
C        0.0019706383   -0.5633662768    0.0023832933
N       -0.7651658767    0.3233452258   -0.0032562834
H        0.7634012965    0.2387301472    0.0037188728
3    
Iteration 9 Energy -92.25075367
C        0.0023788692   -0.5634259818    0.0023852501
N       -0.7644733843    0.3235508478   -0.0032537415
H        0.7623005732    0.2385842302    0.0037143741
3    
Iteration 8 Energy -92.25065791
C        0.0026726713   -0.5634614260    0.0023866394
N       -0.7639862939    0.3236957158   -0.0032519542
H        0.7615196807    0.2384748064    0.0037111975
3    
Iteration 7 Energy -92.25058958
C        0.0028828963   -0.5634832539    0.0023876245
N       -0.7636430959    0.3237979136   -0.0032506952
H        0.7609662576    0.2383944365    0.0037089533
3    
Iteration 6 Energy -92.25054095
C        0.0030327715   -0.5634970805    0.0023883225
N       -0.7634010457    0.3238700576   -0.0032498074
H        0.7605743323    0.2383361191    0.0037073676
3    
Iteration 5 Energy -92.25050640
C        0.0031393576   -0.5635060491    0.0023888166
N       -0.7632302088    0.3239210073   -0.0032491808
H        0.7602969093    0.2382941381    0.0037062469
3    
Iteration 4 Energy -92.25048189
C        0.0032151470   -0.5635118343    0.0023891665
N       -0.7631096303    0.3239569918   -0.0032487387
H        0.7601005414    0.2382639387    0.0037054549
3    
Iteration 3 Energy -92.25046452
C        0.0032688631   -0.5635157576    0.0023894140
N       -0.7630244368    0.3239824232   -0.0032484263
H        0.7599616318    0.2382424306    0.0037048950
3    
Iteration 2 Energy -92.25045222
C        0.0033069083   -0.5635184483    0.0023895891
N       -0.7629642302    0.3240003990   -0.0032482056
H        0.7598633800    0.2382271455    0.0037044992
3    
Iteration 1 Energy -92.25044351
C        0.0033338412   -0.5635203098    0.0023897129
N       -0.7629216749    0.3240131067   -0.0032480496
H        0.7597938917    0.2382162993    0.0037042193
3    
Iteration 0 Energy -92.24601961
C       -0.0343280380   -0.6460205562    0.0024321588
N       -0.6862156347    0.3407715235   -0.0029512417
H        0.7207497308    0.3039581289    0.0033649656
3    
Iteration 1 Energy -92.25397939
C       -0.0697031421   -0.7311082432    0.0024912745
N       -0.5576084387    0.3587572667   -0.0024279872
H        0.6275176389    0.3710600726    0.0027825954
3    
Iteration 2 Energy -92.27002293
C       -0.1409151899   -0.8088039391    0.0023731569
N       -0.4590067224    0.3386342751   -0.0019408932
H        0.6001279704    0.4688787602    0.0024136190
3    
Iteration 3 Energy -92.28986344
C       -0.2316208968   -0.8911414871    0.0021805803
N       -0.4017392133    0.2932776255   -0.0015726864
H        0.6335661683    0.5965729578    0.0022379887
3    
Iteration 4 Energy -92.29413810
C       -0.2441829883   -0.8986410752    0.0021440198
N       -0.3778690483    0.2884888699   -0.0014549770
H        0.6222580947    0.6088613016    0.0021568400
3    
Iteration 5 Energy -92.29978367
C       -0.2666207245   -0.9133696088    0.0020820950
N       -0.3502098834    0.2762958219   -0.0013017497
H        0.6170366660    0.6357828831    0.0020655374
3    
Iteration 6 Energy -92.30725885
C       -0.3000197625   -0.9347944675    0.0019886547
N       -0.3153169398    0.2553752495   -0.0010944156
H        0.6155427604    0.6781283142    0.0019516436
3    
Iteration 7 Energy -92.31637246
C       -0.3407690954   -0.9494164788    0.0018454688
N       -0.2563558096    0.2260200270   -0.0007592592
H        0.5973309631    0.7221055480    0.0017596731
3    
Iteration 8 Energy -92.32449116
C       -0.4046707518   -0.9916405602    0.0016698138
N       -0.2056759439    0.1771001444   -0.0004111614
H        0.6105527537    0.8132495120    0.0015872303
3    
Iteration 9 Energy -92.33195495
C       -0.4342208791   -0.9787349887    0.0015064175
N       -0.1343078827    0.1514688843   -0.0000305647
H        0.5687348200    0.8259752005    0.0013700299
3    
Iteration 10 Energy -92.33773250
C       -0.4848856712   -0.9807925821    0.0012875428
N       -0.0565722458    0.0992814167    0.0004454782
H        0.5416639751    0.8802202616    0.0011128617
3    
Iteration 11 Energy -92.33961426
C       -0.5257696800   -0.9621842345    0.0010595688
N        0.0280924531    0.0508298097    0.0009427028
H        0.4978832849    0.9100635211    0.0008436111
3    
Iteration 12 Energy -92.33963753
C       -0.5261962391   -0.9629727393    0.0010596828
N        0.0279675621    0.0506195462    0.0009426769
H        0.4984347352    0.9110622893    0.0008435230
3    
Iteration 13 Energy -92.33966246
C       -0.5267546268   -0.9640029229    0.0010598268
N        0.0279241939    0.0505596145    0.0009426290
H        0.4990364910    0.9121524046    0.0008434269
3    
Iteration 14 Energy -92.33968386
C       -0.5274664660   -0.9653308366    0.0010600536
N        0.0279852796    0.0507278808    0.0009424492
H        0.4996872444    0.9133120520    0.0008433799
3    
Iteration 15 Energy -92.33969040
C       -0.5279290403   -0.9664422083    0.0009681872
N        0.0279125753    0.0511727039    0.0011427474
H        0.5002225232    0.9139786006    0.0007349481
3    
Iteration 16 Energy -92.33969060
C       -0.5279870522   -0.9664206149    0.0013094749
N        0.0280899106    0.0512186862    0.0003990884
H        0.5001031997    0.9139110249    0.0011373194
3    
Iteration 1 Energy -92.33969070
C       -0.5279757187   -0.9663408237    0.0012284575
N        0.0281920628    0.0512763144    0.0005754109
H        0.4999897141    0.9137736055    0.0010420143
