3    
Iteration 1 Energy -92.33969073
C       -0.7404835878   -0.8145621197   -0.0000000000
N        0.0395821997    0.0435490778   -0.0000000000
H        0.7009013881    0.7710130419   -0.0000000000
3    
Iteration 1 Energy -92.35406017
C        0.0194880620    0.0214351715    0.0000000000
N       -0.7454617131   -0.8199436269    0.0000000000
H        0.7259736510    0.7985084555   -0.0000000000
