13   
IRC product Energy -340.92180401
C       -1.4487362063    1.5262448990   -0.3198636723
N       -0.5090020711    0.9597627676    0.1112956395
C        1.4752135430   -0.2575699614   -0.6830810760
C        0.6578190484    0.2647002196    0.5191904645
C        0.3295491713   -0.8853496435    1.5000207156
N       -0.5538600442   -0.8541454093    2.3803899080
C        0.8491752572   -0.6837448562   -1.9763656917
C        1.4902243804    0.4432893163   -2.0057566927
H        2.3805384452   -0.7603575312   -0.3203690364
H        1.2901908184    0.9692707073    1.0784768548
H        0.9813020791   -1.7693486017    1.4079819893
H        0.2618063006   -1.4389387198   -2.4763530867
H        1.8278504189    1.3149443660   -2.5457419623
