13   
Iteration 0 Energy -340.92180401
C       -1.4487362063    1.5262448990   -0.3198636723
N       -0.5090020711    0.9597627676    0.1112956395
C        1.4752135430   -0.2575699614   -0.6830810760
C        0.6578190484    0.2647002196    0.5191904645
C        0.3295491713   -0.8853496435    1.5000207156
N       -0.5538600442   -0.8541454093    2.3803899080
C        0.8491752572   -0.6837448562   -1.9763656917
C        1.4902243804    0.4432893163   -2.0057566927
H        2.3805384452   -0.7603575312   -0.3203690364
H        1.2901908184    0.9692707073    1.0784768548
H        0.9813020791   -1.7693486017    1.4079819893
H        0.2618063006   -1.4389387198   -2.4763530867
H        1.8278504189    1.3149443660   -2.5457419623
13   
Iteration 1 Energy -340.92194359
C       -1.4439916820    1.5255314990   -0.3151775064
N       -0.5019773769    0.9613986441    0.1138486778
C        1.4816289182   -0.2548021888   -0.6810207974
C        0.6662382047    0.2695718513    0.5216645470
C        0.3336480800   -0.8836725144    1.4960835641
N       -0.5792675195   -0.8680791632    2.3461460555
C        0.8435310510   -0.6838941307   -1.9675520897
C        1.4883364764    0.4407655622   -2.0065689450
H        2.3878826989   -0.7585252883   -0.3218847907
H        1.2941273971    0.9760302078    1.0836936353
H        0.9938665226   -1.7623259358    1.4140895413
H        0.2493445002   -1.4389655263   -2.4596570470
H        1.8236073515    1.3095598338   -2.5525653520
13   
Iteration 2 Energy -340.92241717
C       -1.4221413906    1.5529937711   -0.2794472186
N       -0.4755289736    0.9847166887    0.1327398279
C        1.4925219513   -0.2439216364   -0.6766099986
C        0.6927237427    0.2897830328    0.5338060649
C        0.3407502598   -0.8775090204    1.4816781518
N       -0.6793774336   -0.9560189796    2.1956213044
C        0.8274571290   -0.6929438325   -1.9439647642
C        1.4777703012    0.4263958117   -2.0157615681
H        2.4000740440   -0.7497843855   -0.3252604728
H        1.3144273829    0.9949400737    1.1045895767
H        1.0635070445   -1.7088743879    1.4692209626
H        0.2200686409   -1.4538307137   -2.4103363246
H        1.8065376767    1.2830279924   -2.5843680434
13   
Iteration 3 Energy -340.92299158
C       -1.3618662130    1.6243242289   -0.2245053188
N       -0.4163020077    1.0337201923    0.1559338452
C        1.5195170991   -0.2342607357   -0.6680437021
C        0.7413556394    0.3149181778    0.5505221318
C        0.3486101183   -0.8732280441    1.4456876594
N       -0.8152091978   -1.1535210400    1.7978702236
C        0.7911481988   -0.7095909433   -1.8907381743
C        1.4407256268    0.4053186296   -2.0196838183
H        2.4353962285   -0.7417227468   -0.3424133923
H        1.3620811595    1.0062094996    1.1389292441
H        1.1761878130   -1.5606893351    1.6831297361
H        0.1570414193   -1.4780831812   -2.3062234091
H        1.7401171376    1.2494275437   -2.6222202302
13   
Iteration 4 Energy -340.92346952
C       -1.3579959601    1.6508139857   -0.2156611233
N       -0.4185721720    1.0465110645    0.1589911444
C        1.5084693296   -0.2357143272   -0.6736028292
C        0.7309884562    0.3115672658    0.5480629565
C        0.3410840856   -0.8728821395    1.4482804078
N       -0.8127717195   -1.1825585468    1.8103883798
C        0.7974823781   -0.7154734009   -1.9042659737
C        1.4405562274    0.4036180099   -2.0266857627
H        2.4255390934   -0.7370158856   -0.3426558865
H        1.3680255222    0.9902006316    1.1329277804
H        1.1853415630   -1.5298449247    1.7120615333
H        0.1739319560   -1.4889792535   -2.3262170542
H        1.7427585835    1.2490574842   -2.6260246928
13   
Iteration 5 Energy -340.92383926
C       -1.3465497034    1.6865323174   -0.2067495335
N       -0.4213848078    1.0559133231    0.1616403276
C        1.4884782324   -0.2498996295   -0.6871357528
C        0.7099866152    0.2887427877    0.5403000798
C        0.3367649818   -0.8808032390    1.4611507624
N       -0.8201035015   -1.1536244345    1.8444258509
C        0.8156223876   -0.7271292118   -1.9375063719
C        1.4270019665    0.4124263317   -2.0300405391
H        2.4153947178   -0.7299299672   -0.3527889544
H        1.3882435500    0.9365938418    1.1126295853
H        1.1902115916   -1.5032919734    1.7784207224
H        0.2220279658   -1.5109764094   -2.3827473135
H        1.7191614721    1.2758581535   -2.6084754083
13   
Iteration 6 Energy -340.92389509
C       -1.3263524960    1.6980270602   -0.2168704666
N       -0.4055921339    1.0630726238    0.1545638057
C        1.5000597481   -0.2507466398   -0.6846280087
C        0.7186169111    0.2910277833    0.5391928237
C        0.3295427112   -0.8772167301    1.4535628543
N       -0.8269638873   -1.2171539503    1.7808793298
C        0.8042464707   -0.7273450098   -1.9216181832
C        1.4194090227    0.4098888027   -2.0266085166
H        2.4308090232   -0.7298373100   -0.3583040419
H        1.3958990558    0.9371143852    1.1160857227
H        1.1931606495   -1.4532054388    1.8232885311
H        0.1983886710   -1.5086875603   -2.3548045884
H        1.7031350370    1.2724446570   -2.6104083350
13   
Iteration 7 Energy -340.92392453
C       -1.3339781740    1.6903253968   -0.2125330913
N       -0.4108515765    1.0593591360    0.1597583695
C        1.4966158678   -0.2476867968   -0.6855287830
C        0.7169524791    0.2915498712    0.5411100407
C        0.3311442519   -0.8784244309    1.4562890096
N       -0.8264895873   -1.1931483659    1.8031706038
C        0.8071773633   -0.7268203922   -1.9257102935
C        1.4239611026    0.4092442026   -2.0301148866
H        2.4261162491   -0.7262749321   -0.3554871714
H        1.3907219232    0.9411122182    1.1185786396
H        1.1900091862   -1.4774703462    1.7998798980
H        0.2040643801   -1.5089842246   -2.3612514491
H        1.7124108992    1.2693907688   -2.6150857102
13   
Iteration 8 Energy -340.92392703
C       -1.3320550260    1.6909582418   -0.2167640529
N       -0.4102744737    1.0598706106    0.1587051931
C        1.4965864550   -0.2489743174   -0.6853409349
C        0.7166733092    0.2909626385    0.5407048391
C        0.3300720772   -0.8785197272    1.4564226874
N       -0.8273921320   -1.1871526288    1.8091969673
C        0.8079794369   -0.7280745496   -1.9257846225
C        1.4217792344    0.4097819901   -2.0287919891
H        2.4271221342   -0.7258271659   -0.3555823012
H        1.3914238870    0.9393497731    1.1183406350
H        1.1878496674   -1.4814029696    1.7961034790
H        0.2063970090   -1.5108133585   -2.3623976436
H        1.7079197433    1.2714788867   -2.6126237877
13   
Iteration 9 Energy -340.92393027
C       -1.3275023308    1.6953504947   -0.2193914154
N       -0.4079373049    1.0631772348    0.1597006545
C        1.4968488401   -0.2486850273   -0.6850350970
C        0.7172103987    0.2913816753    0.5412446551
C        0.3279557768   -0.8785505355    1.4550716914
N       -0.8309248758   -1.1876687327    1.8026681862
C        0.8079857780   -0.7306995821   -1.9239848910
C        1.4185760514    0.4087075548   -2.0289476096
H        2.4291738551   -0.7222642051   -0.3556229152
H        1.3933872508    0.9370513025    1.1202425104
H        1.1849244111   -1.4806749192    1.7982255287
H        0.2078069526   -1.5151874779   -2.3593873633
H        1.7017227967    1.2705754291   -2.6139723006
13   
Iteration 10 Energy -340.92393514
C       -1.3162182474    1.7052277765   -0.2286146481
N       -0.4025797435    1.0712573358    0.1617488233
C        1.4979686356   -0.2464448651   -0.6838066930
C        0.7180986111    0.2929616333    0.5428828283
C        0.3213445917   -0.8786893707    1.4516074177
N       -0.8399499166   -1.1853722348    1.7931239097
C        0.8077272003   -0.7370429842   -1.9181923817
C        1.4114285072    0.4054301238   -2.0299043784
H        2.4345545026   -0.7120161366   -0.3550095500
H        1.3963663221    0.9329966787    1.1255922100
H        1.1751394618   -1.4847990807    1.7956273040
H        0.2103989598   -1.5261669920   -2.3491664636
H        1.6877434759    1.2665404134   -2.6192387917
13   
Iteration 11 Energy -340.92393617
C       -1.3124002149    1.7099825445   -0.2298981813
N       -0.4005809861    1.0748407478    0.1628405900
C        1.4981060988   -0.2452567678   -0.6832882980
C        0.7185086760    0.2941971450    0.5437383617
C        0.3187056156   -0.8781582509    1.4499978157
N       -0.8436044573   -1.1854193951    1.7876264840
C        0.8079053587   -0.7399291248   -1.9162210384
C        1.4088975581    0.4036644177   -2.0306769392
H        2.4357048011   -0.7088777541   -0.3546819155
H        1.3970532249    0.9325595991    1.1279131729
H        1.1711828146   -1.4855209245    1.7949965535
H        0.2119652370   -1.5313159803   -2.3449701526
H        1.6829880053    1.2641835974   -2.6218976702
13   
Iteration 12 Energy -340.92393670
C       -1.3102608162    1.7135668532   -0.2311304221
N       -0.3997179898    1.0772548697    0.1626997082
C        1.4982792026   -0.2441934685   -0.6827809295
C        0.7181600804    0.2950272092    0.5440751977
C        0.3162099751   -0.8776682723    1.4488430497
N       -0.8465628311   -1.1834894366    1.7863644546
C        0.8079157436   -0.7419413535   -1.9145764506
C        1.4076329796    0.4020582705   -2.0313701557
H        2.4363120989   -0.7068870663   -0.3541775016
H        1.3967653868    0.9323953296    1.1291922931
H        1.1674426248   -1.4872479225    1.7929736455
H        0.2125602919   -1.5349357248   -2.3411463729
H        1.6806295481    1.2618649973   -2.6241344362
