13   
Iteration 0 Energy -340.82899652
C       -3.1317939108   -0.1615061932   -0.9526628956
N       -2.3904048546   -0.0491161881   -0.0412655840
C        0.9341769381   -0.3789948428   -0.1370219424
C        0.1399104065    0.3883911557    0.8560694703
C       -0.5029679060   -0.2725211556    2.0240352344
N        0.5467632200    0.2985286281    2.3758572831
C        0.5614822907   -0.3123727263   -1.6020913347
C        1.6252486808    0.3457036802   -1.2824288278
H        1.3671775279   -1.3010149363    0.2630321889
H       -0.2225791818    1.3666199833    0.5534610711
H       -1.3135196926   -0.8860273149    2.3991863430
H       -0.1891170455   -0.6353687776   -2.3083850057
H        2.4509296021    0.9953484934   -1.5317807510
13   
Iteration 1 Energy -340.82899655
C       -3.1317220901   -0.1614589438   -0.9525735811
N       -2.3904627256   -0.0492729087   -0.0410551345
C        0.9342242997   -0.3793226580   -0.1369020627
C        0.1396924181    0.3876570664    0.8562619929
C       -0.5034232906   -0.2730670410    2.0242140433
N        0.5466106432    0.2973775834    2.3760796771
C        0.5614077267   -0.3123060902   -1.6018952241
C        1.6250656843    0.3458973361   -1.2821336339
H        1.3674473298   -1.3013498184    0.2628967782
H       -0.2228837985    1.3658574534    0.5536400213
H       -1.3141916526   -0.8862678476    2.3993845109
H       -0.1891737319   -0.6352567444   -2.3082257289
H        2.4505554064    0.9958287425   -1.5313740857
