13   
IRC product Energy -340.97461262
C       -1.4504285477   -1.4227774455    0.0118896181
N       -2.0833934107   -1.5390217819   -0.9697955533
C        0.3720341102    1.3509831741   -0.0713854786
C        0.0958526828    0.8910635348    1.1828811505
C       -0.2029750382   -0.4305394614    1.6927636574
N       -0.8273257050   -1.4483480426    1.1816080799
C        0.5541482518   -0.6343311253   -1.5724218060
C        0.5626905617    0.6719249705   -1.3421720113
H        0.5525700781    2.4236938443   -0.1273471262
H        0.1900300171    1.6272578593    1.9802183394
H        0.1236081947   -0.5959279838    2.7223633255
H        0.6789448654   -1.2773698228   -2.4331541985
H        0.7681835299    1.3411611558   -2.1862234164
