13   
Iteration 0 Energy -340.97461262
C       -1.4504285477   -1.4227774455    0.0118896181
N       -2.0833934107   -1.5390217819   -0.9697955533
C        0.3720341102    1.3509831741   -0.0713854786
C        0.0958526828    0.8910635348    1.1828811505
C       -0.2029750382   -0.4305394614    1.6927636574
N       -0.8273257050   -1.4483480426    1.1816080799
C        0.5541482518   -0.6343311253   -1.5724218060
C        0.5626905617    0.6719249705   -1.3421720113
H        0.5525700781    2.4236938443   -0.1273471262
H        0.1900300171    1.6272578593    1.9802183394
H        0.1236081947   -0.5959279838    2.7223633255
H        0.6789448654   -1.2773698228   -2.4331541985
H        0.7681835299    1.3411611558   -2.1862234164
13   
Iteration 1 Energy -340.97411693
C       -1.3777437000   -1.4176535148   -0.0296298239
N       -1.9571336850   -1.5394354922   -1.0430091103
C        0.3781751192    1.3529071311   -0.0609438075
C        0.0981742563    0.9023191804    1.1958852829
C       -0.2087268452   -0.4187702837    1.7019651891
N       -0.8146903837   -1.4370878410    1.1703755525
C        0.4764227220   -0.6439157023   -1.5552115744
C        0.5368517676    0.6623871998   -1.3288931118
H        0.5832188505    2.4207532467   -0.1224465856
H        0.1950227650    1.6393135506    1.9922573543
H        0.0957723675   -0.5850710307    2.7381396875
H        0.5689237519   -1.2948489736   -2.4137337321
H        0.7569219286    1.3200889808   -2.1783346709
13   
Iteration 2 Energy -340.97451614
C       -1.4141821846   -1.4137489379   -0.0126530213
N       -2.0228210900   -1.5276715151   -1.0096742469
C        0.3722378055    1.3524432442   -0.0658700109
C        0.0967122813    0.8974593187    1.1903630410
C       -0.2023611655   -0.4257221240    1.6956870699
N       -0.8173082718   -1.4420881722    1.1707088342
C        0.5180804654   -0.6426631674   -1.5583500814
C        0.5479253893    0.6648730707   -1.3332572931
H        0.5615663066    2.4232501782   -0.1264641579
H        0.1913163457    1.6336173550    1.9877702864
H        0.1153732983   -0.5946683215    2.7274519343
H        0.6281762977   -1.2919619982   -2.4160606290
H        0.7575067408    1.3266588233   -2.1821777659
13   
Iteration 3 Energy -340.97459883
C       -1.4324721069   -1.4147966836   -0.0021861872
N       -2.0544920343   -1.5271081836   -0.9911103769
C        0.3705372631    1.3519184855   -0.0685484091
C        0.0961048711    0.8945858955    1.1870681432
C       -0.2007800693   -0.4287842373    1.6932343267
N       -0.8204004933   -1.4449331132    1.1733307470
C        0.5377577439   -0.6403206331   -1.5624573794
C        0.5543112018    0.6672287581   -1.3365004237
H        0.5536231300    2.4239077361   -0.1277970095
H        0.1900333546    1.6305167057    1.9847506263
H        0.1225438271   -0.5975859696    2.7232888134
H        0.6561001671   -1.2876416737   -2.4206171391
H        0.7601869202    1.3318179623   -2.1841341164
13   
Iteration 4 Energy -340.97462522
C       -1.4373407385   -1.4212937956    0.0041662812
N       -2.0594803509   -1.5385471360   -0.9841952977
C        0.3730829008    1.3510782325   -0.0695190355
C        0.0962394448    0.8934861033    1.1856961825
C       -0.2039786203   -0.4280943153    1.6947153437
N       -0.8249315737   -1.4460069216    1.1795419879
C        0.5398396522   -0.6367913939   -1.5700081437
C        0.5577269727    0.6699820098   -1.3391370481
H        0.5579396923    2.4228671876   -0.1266160881
H        0.1908850021    1.6299333440    1.9828073435
H        0.1186728412   -0.5938969075    2.7254531696
H        0.6586165567   -1.2810402011   -2.4303748874
H        0.7657183510    1.3370886628   -2.1842778727
13   
Iteration 5 Energy -340.97463709
C       -1.4354414558   -1.4323531477    0.0075677591
N       -2.0518414686   -1.5585095409   -0.9833750501
C        0.3786695513    1.3513533577   -0.0701548299
C        0.0968580098    0.8928644803    1.1839634030
C       -0.2098412363   -0.4256318159    1.6965868905
N       -0.8286014798   -1.4472822938    1.1857995145
C        0.5310959032   -0.6312182420   -1.5765873950
C        0.5599726281    0.6750510405   -1.3418459405
H        0.5697584987    2.4222341976   -0.1233397731
H        0.1932675205    1.6294806500    1.9806651017
H        0.1073941066   -0.5861439769    2.7298136483
H        0.6453871151   -1.2740294316   -2.4384394383
H        0.7741755128    1.3430662814   -2.1847675268
13   
Iteration 6 Energy -340.97464071
C       -1.4361875544   -1.4329782088    0.0093683801
N       -2.0556923139   -1.5589466105   -0.9799025307
C        0.3787741444    1.3487711494   -0.0706535225
C        0.0962050780    0.8922235467    1.1844384390
C       -0.2113989846   -0.4250125349    1.6987265812
N       -0.8266249706   -1.4480607736    1.1858866658
C        0.5334346698   -0.6317835817   -1.5824584064
C        0.5601236026    0.6739233804   -1.3425636490
H        0.5693559736    2.4197895491   -0.1236962459
H        0.1947157357    1.6295332728    1.9802172682
H        0.1014518385   -0.5831479070    2.7336530193
H        0.6493443854   -1.2708008337   -2.4468487316
H        0.7740068158    1.3438271825   -2.1839966302
13   
Iteration 7 Energy -340.97464283
C       -1.4332933114   -1.4349488215    0.0060608453
N       -2.0518993895   -1.5620123721   -0.9837232416
C        0.3792541683    1.3505251117   -0.0703209973
C        0.0966576485    0.8932730243    1.1846500229
C       -0.2127643806   -0.4241684366    1.6967591272
N       -0.8255529604   -1.4484974894    1.1833100239
C        0.5292961276   -0.6316229407   -1.5789367623
C        0.5583359957    0.6745372485   -1.3418736807
H        0.5717206658    2.4212393388   -0.1233082513
H        0.1977998321    1.6294178172    1.9811595027
H        0.0981937237   -0.5825775054    2.7321882557
H        0.6439572475   -1.2722292781   -2.4423882918
H        0.7730503552    1.3428606175   -2.1843618476
13   
Iteration 8 Energy -340.97464209
C       -1.4264907291   -1.4351242021    0.0032659303
N       -2.0390653831   -1.5626754688   -0.9902903181
C        0.3790014045    1.3487257740   -0.0705113094
C        0.0969660566    0.8915953337    1.1848610971
C       -0.2158031241   -0.4233723566    1.7002234270
N       -0.8271257170   -1.4476106969    1.1845418292
C        0.5236475710   -0.6320771554   -1.5800647002
C        0.5548295933    0.6740599400   -1.3431487949
H        0.5743532879    2.4189625225   -0.1228194508
H        0.2018347553    1.6283224534    1.9802620369
H        0.0907843929   -0.5801084995    2.7372288460
H        0.6369990935   -1.2721563545   -2.4441706334
H        0.7697669758    1.3425229413   -2.1854950253
13   
Iteration 9 Energy -340.97464458
C       -1.4300541105   -1.4357414510    0.0040349369
N       -2.0457883445   -1.5632226440   -0.9876051592
C        0.3789456867    1.3492240791   -0.0707963636
C        0.0972619167    0.8918833569    1.1846242115
C       -0.2152548038   -0.4237681606    1.6982698884
N       -0.8272037038   -1.4481880645    1.1835000033
C        0.5273329357   -0.6321188586   -1.5795202078
C        0.5557080746    0.6742662572   -1.3429891070
H        0.5733035060    2.4196262677   -0.1232440385
H        0.2016923654    1.6281666891    1.9805255230
H        0.0918026268   -0.5809363259    2.7350370678
H        0.6418279192   -1.2722245694   -2.4434077756
H        0.7689760731    1.3428316888   -2.1856585891
13   
Iteration 10 Energy -340.97464463
C       -1.4297494603   -1.4365425217    0.0036784762
N       -2.0445541661   -1.5646426096   -0.9884588416
C        0.3791484837    1.3487252950   -0.0707902888
C        0.0975134427    0.8918635925    1.1848503088
C       -0.2162793370   -0.4234757672    1.6983369146
N       -0.8281951679   -1.4480563338    1.1837595572
C        0.5273274294   -0.6327037323   -1.5808143820
C        0.5551452845    0.6735173555   -1.3428957820
H        0.5742185708    2.4189909898   -0.1233809770
H        0.2023309234    1.6282100394    1.9806576025
H        0.0894917419   -0.5803252599    2.7355147583
H        0.6416181592   -1.2718546330   -2.4454336754
H        0.7673223650    1.3424684830   -2.1854950283
