13   
step_00 start
C       -2.1760411510    1.3242500989   -0.8978831944
N       -1.3416157472    0.9686037285   -0.1441790790
C        0.9119036564   -0.0249635511   -0.1026147374
C       -0.3060579929    0.4903008647    0.7032771597
C       -0.8488791956   -0.6413322362    1.5922946246
N       -0.6191954075   -0.7162101298    2.8171258676
C        0.7763769657   -0.7163696075   -1.4265045961
C        1.2410750444    0.4934335244   -1.4704562510
H        1.7104340488   -0.3114660376    0.5896387215
H        0.0180112695    1.3078364310    1.3561897032
H       -1.4264880079   -1.4194857590    1.0700889860
H        0.4890335271   -1.6245497287   -1.9348315459
H        1.6194112755    1.3322689345   -2.0347818693
13   
step_00 end
C       -3.0161968569   -0.3620122388   -0.3502134760
N       -1.9293811517   -0.0290863204   -0.0354790067
C        0.4319872996   -0.4069096893   -0.5360821142
C       -0.5981271038    0.3237528118    0.3413517459
C       -0.3801660940   -0.0332579193    1.8218401867
N        0.0918688673    0.7695316852    2.6531626120
C        1.0077745507    0.2480868647   -1.7600095621
C        1.8029846042    0.1718776828   -0.7391894904
H        0.2914363896   -1.4927539165   -0.5119163178
H       -0.4732394394    1.4046761741    0.2273728663
H       -0.6358963141   -1.0657825281    2.1065727250
H        0.8150633662    0.5302750953   -2.7840340541
H        2.7658567175    0.3445058445   -0.2824337680
