13   
Iteration 1 Energy -340.97170795
C       -1.4077009182   -1.5153157039    0.0228957714
N       -2.0995855304   -1.6282173074   -0.9157349678
C        0.3197792652    1.3041785923   -0.1827202233
C        0.2103080972    0.8015025420    1.0769288146
C        0.0052044355   -0.5436149609    1.5824954645
N       -0.6700444377   -1.5534833878    1.1265109885
C        0.7301870791   -0.5800725760   -1.7915234928
C        0.4238700489    0.6739548142   -1.4983090814
H        0.4116118330    2.3893010978   -0.2292289908
H        0.3476152502    1.5231772116    1.8818656991
H        0.4566356774   -0.7290803359    2.5601506300
H        0.9884493077   -1.5072942435   -1.3003276584
H        0.2836698922    1.3649642577   -2.3330029537
