13   
Iteration 0 Energy -340.99467452
C       -1.4077009182   -1.5153157039    0.0228957714
N       -2.0995855304   -1.6282173074   -0.9157349678
C        0.3197792652    1.3041785923   -0.1827202233
C        0.2103080972    0.8015025420    1.0769288146
C        0.0052044355   -0.5436149609    1.5824954645
N       -0.6700444377   -1.5534833878    1.1265109885
C        0.7301870791   -0.5800725760   -1.7915234928
C        0.4238700489    0.6739548142   -1.4983090814
H        0.4116118330    2.3893010978   -0.2292289908
H        0.3476152502    1.5231772116    1.8818656991
H        0.4566356774   -0.7290803359    2.5601506300
H        0.9884493077   -1.5072942435   -1.3003276584
H        0.2836698922    1.3649642577   -2.3330029537
13   
Iteration 1 Energy -340.99387097
C       -1.4892641026   -1.5392897524    0.1024125060
N       -2.2206323411   -1.6630593510   -0.8048532594
C        0.3247281032    1.2888989438   -0.1961206656
C        0.1971929010    0.7804565948    1.0617802829
C       -0.0130205401   -0.5529042020    1.5979778507
N       -0.7080735436   -1.5657283397    1.1756505796
C        0.8285816852   -0.5356090062   -1.8623657394
C        0.4738761078    0.6958529260   -1.5262938100
H        0.3990543388    2.3754699847   -0.2250303852
H        0.3240528994    1.5102967432    1.8604846335
H        0.4457110379   -0.7207586986    2.5748028582
H        1.1094784129   -1.4772939970   -1.4132531901
H        0.3293649390    1.4083283919   -2.3414593953
13   
Iteration 2 Energy -340.99452070
C       -1.4359105335   -1.5368643786    0.0621382282
N       -2.1350014145   -1.6649034083   -0.8696201552
C        0.3270741754    1.2965987575   -0.1881274134
C        0.2046736774    0.7920306026    1.0715450589
C       -0.0090530308   -0.5438624865    1.5995781429
N       -0.6915865543   -1.5582882238    1.1614151789
C        0.7622444724   -0.5564012880   -1.8378458793
C        0.4471701221    0.6889958959   -1.5143621135
H        0.4188995083    2.3817234117   -0.2238066025
H        0.3388866202    1.5195856399    1.8712366712
H        0.4394084708   -0.7152483974    2.5806655084
H        1.0212184953   -1.4981827973   -1.3758749779
H        0.3123813378    1.3966159057   -2.3355006867
13   
Iteration 3 Energy -340.99467022
C       -1.4203375847   -1.5279782995    0.0427948428
N       -2.1142771357   -1.6501189309   -0.8935350926
C        0.3243056357    1.3006435649   -0.1853603035
C        0.2076230642    0.7969964364    1.0747296684
C       -0.0027992528   -0.5431217823    1.5926775130
N       -0.6814873538   -1.5559413565    1.1456821032
C        0.7440530349   -0.5678892041   -1.8168256144
C        0.4355711478    0.6823886453   -1.5069964370
H        0.4174200212    2.3856122606   -0.2260840897
H        0.3436448971    1.5218478388    1.8767152847
H        0.4461403489   -0.7207831007    2.5725899040
H        1.0010650119   -1.5035979641   -1.3415172255
H        0.2992360037    1.3826424977   -2.3343094561
13   
Iteration 4 Energy -340.99470314
C       -1.4152699489   -1.5187483186    0.0343133028
N       -2.1104274353   -1.6341103981   -0.9020697641
C        0.3207558703    1.3014929482   -0.1841852599
C        0.2079726158    0.7984301684    1.0766085176
C        0.0020315640   -0.5439597885    1.5903862152
N       -0.6762111226   -1.5542880314    1.1368048972
C        0.7414449286   -0.5741985490   -1.8064111694
C        0.4306246199    0.6773456140   -1.5033204760
H        0.4112145477    2.3864901446   -0.2279507508
H        0.3434613293    1.5226233070    1.8792296760
H        0.4521348982   -0.7258041071    2.5688629537
H        1.0014022434   -1.5072234526   -1.3274269184
H        0.2911451624    1.3728220026   -2.3340567201
13   
Iteration 5 Energy -340.99471451
C       -1.4221022762   -1.5127941739    0.0290364475
N       -2.1316627032   -1.6215586899   -0.8973036402
C        0.3168387549    1.3071280430   -0.1831603831
C        0.2075429819    0.8024862136    1.0772324718
C        0.0084742030   -0.5460068203    1.5775124053
N       -0.6692156594   -1.5557520206    1.1215322798
C        0.7512764233   -0.5779952555   -1.7871731867
C        0.4307763851    0.6743128761   -1.4979336392
H        0.4021148956    2.3922496800   -0.2300555216
H        0.3404746613    1.5234722119    1.8831667876
H        0.4648619428   -0.7359584029    2.5511201128
H        1.0151361253   -1.5079634600   -1.3045007203
H        0.2874602086    1.3608446285   -2.3353193021
13   
Iteration 6 Energy -340.99472348
C       -1.4201610971   -1.4999182614    0.0296002898
N       -2.1313038992   -1.6006974022   -0.8965214381
C        0.3123497933    1.3028427585   -0.1821624680
C        0.2041182541    0.8007580967    1.0797343026
C        0.0127360716   -0.5473538458    1.5845596802
N       -0.6688996548   -1.5521013174    1.1226788640
C        0.7594553612   -0.5801182653   -1.7891614851
C        0.4307874278    0.6693816227   -1.4970368609
H        0.3936375380    2.3879861810   -0.2305712124
H        0.3311205750    1.5252412555    1.8832573837
H        0.4712541282   -0.7396848578    2.5564803982
H        1.0247681243   -1.5148521117   -1.3169711509
H        0.2834546995    1.3547286370   -2.3345079064
13   
Iteration 7 Energy -340.99473113
C       -1.4189548595   -1.5081172177    0.0318971444
N       -2.1251873887   -1.6156696638   -0.8970726748
C        0.3163271080    1.3047529312   -0.1818615186
C        0.2045048864    0.8016244662    1.0786822556
C        0.0091093354   -0.5455916492    1.5846806780
N       -0.6720227632   -1.5528513163    1.1286025480
C        0.7539567137   -0.5772142248   -1.7923791615
C        0.4324877329    0.6731569255   -1.4977929500
H        0.4019847982    2.3897863470   -0.2286581677
H        0.3317660127    1.5256627408    1.8826816924
H        0.4687550645   -0.7358031060    2.5567368807
H        1.0116837164   -1.5140869448   -1.3203704701
H        0.2892686083    1.3613247164   -2.3338701172
13   
Iteration 8 Energy -340.99473326
C       -1.4237319697   -1.5066914709    0.0341078877
N       -2.1344336038   -1.6124509088   -0.8915309618
C        0.3159340618    1.3043605725   -0.1821482520
C        0.2035685333    0.8013826106    1.0779940526
C        0.0105339301   -0.5468040247    1.5825981171
N       -0.6710956973   -1.5536784005    1.1271691781
C        0.7596158577   -0.5764807040   -1.7911263170
C        0.4348035251    0.6731090849   -1.4979657621
H        0.3989150683    2.3896680149   -0.2291015904
H        0.3288066663    1.5250505009    1.8827633512
H        0.4722890220   -0.7373203297    2.5537665135
H        1.0181098270   -1.5122033490   -1.3173892909
H        0.2913760447    1.3610803276   -2.3343290433
13   
Iteration 9 Energy -340.99473435
C       -1.4244098260   -1.5052255609    0.0343905076
N       -2.1362650270   -1.6100758362   -0.8904501998
C        0.3157445107    1.3051847661   -0.1815516127
C        0.2027385441    0.8021192412    1.0785186467
C        0.0115003308   -0.5469582920    1.5822426636
N       -0.6706578546   -1.5534762172    1.1268017537
C        0.7609776074   -0.5770074148   -1.7898967473
C        0.4356638851    0.6725459173   -1.4969609998
H        0.3980562251    2.3904739935   -0.2290806511
H        0.3262860302    1.5256338460    1.8836707211
H        0.4752710815   -0.7384689676    2.5522065597
H        1.0185154562   -1.5133790160   -1.3169212365
H        0.2924586456    1.3600384445   -2.3337033014
13   
Iteration 10 Energy -340.99473473
C       -1.4251706209   -1.5033779365    0.0352206293
N       -2.1377902230   -1.6071133623   -0.8891107392
C        0.3157326525    1.3053315017   -0.1810056228
C        0.2017901822    0.8025058928    1.0789695252
C        0.0126348404   -0.5473513702    1.5822499440
N       -0.6704734372   -1.5532763212    1.1271285244
C        0.7621001968   -0.5771408535   -1.7880490080
C        0.4367351963    0.6727219701   -1.4966427504
H        0.3973932022    2.3905934812   -0.2287148356
H        0.3233297845    1.5260874690    1.8843548292
H        0.4790634386   -0.7398676920    2.5507027279
H        1.0179440935   -1.5136424450   -1.3143484521
H        0.2944171947    1.3599148098   -2.3337715281
13   
Iteration 11 Energy -340.99473494
C       -1.4259437385   -1.5028460548    0.0359853326
N       -2.1389405473   -1.6062501799   -0.8880650789
C        0.3158016886    1.3056252195   -0.1807310747
C        0.2015594320    0.8025596539    1.0790149693
C        0.0128649085   -0.5474016296    1.5822372287
N       -0.6704592942   -1.5532369474    1.1273917497
C        0.7626817262   -0.5771864719   -1.7880990205
C        0.4374742541    0.6725467032   -1.4960573649
H        0.3970660086    2.3909423638   -0.2285082205
H        0.3226675721    1.5260810552    1.8845245172
H        0.4798650096   -0.7399662160    2.5504324159
H        1.0185570357   -1.5135747292   -1.3141813299
H        0.2953557615    1.3598863369   -2.3330689905
