13   
IRC product Energy -340.94788563
C       -2.1644970284    1.2293768867    0.3272434724
N       -1.0386933886    1.7476930846    0.1135635871
C        0.9445338853    0.3475549359   -0.5152005550
C       -0.0894895866    0.6827117234    0.5616698057
C       -1.0309418751   -0.4179716982    0.9961945243
N       -2.2739276574   -0.0837142191    0.8638152189
C        1.5408754265   -1.0304802665   -0.6692866953
C        0.6922652261   -0.6801715552   -1.5875172329
H        1.5508667987    1.2242659593   -0.7564573247
H        0.4332069856    1.0784252626    1.4471347010
H       -0.7390437701   -1.3865635566    1.3944116175
H        2.2368581506   -1.7507149634   -0.2664927210
H        0.1627887992   -0.8938370045   -2.5030969188
