13   
Iteration 0 Energy -340.94788563
C       -2.1644970284    1.2293768867    0.3272434724
N       -1.0386933886    1.7476930846    0.1135635871
C        0.9445338853    0.3475549359   -0.5152005550
C       -0.0894895866    0.6827117234    0.5616698057
C       -1.0309418751   -0.4179716982    0.9961945243
N       -2.2739276574   -0.0837142191    0.8638152189
C        1.5408754265   -1.0304802665   -0.6692866953
C        0.6922652261   -0.6801715552   -1.5875172329
H        1.5508667987    1.2242659593   -0.7564573247
H        0.4332069856    1.0784252626    1.4471347010
H       -0.7390437701   -1.3865635566    1.3944116175
H        2.2368581506   -1.7507149634   -0.2664927210
H        0.1627887992   -0.8938370045   -2.5030969188
13   
Iteration 1 Energy -340.94788564
C       -2.1651347570    1.2283199531    0.3268145585
N       -1.0394734355    1.7469889633    0.1132451778
C        0.9442263125    0.3475973526   -0.5153341279
C       -0.0900146534    0.6823230361    0.5614773679
C       -1.0311291839   -0.4186792883    0.9959281635
N       -2.2741947980   -0.0848151879    0.8633665339
C        1.5409975113   -1.0302155581   -0.6696229485
C        0.6922613096   -0.6800619684   -1.5877954169
H        1.5502903083    1.2245273432   -0.7564787197
H        0.4324909060    1.0781853971    1.4469988638
H       -0.7389683281   -1.3871839119    1.3941442574
H        2.2372058164   -1.7502844859   -0.2669363787
H        0.1628443049   -0.8937570022   -2.5033997622
