13   
Climbing Image - Chain 100 Image 2 Energy  -340.9230202496 (+42.017 kcal/mol) RMSGrad 0.044 eV/Ang
C       -2.5462792342    0.4570791512    0.3283924474
N       -1.8948076253    1.3981084324   -0.0684069460
C        0.9771752828    0.5616689057   -0.2694825732
C       -0.1963330235    0.5280611078    0.6334301129
C       -0.8998517982   -0.7202856437    0.9928148381
N       -2.1929242716   -0.7825131257    0.8667648847
C        1.7681628540   -0.6991868048   -0.6317611699
C        0.9960059723   -0.2396613789   -1.5602197578
H        1.5085251910    1.5148675232   -0.2517034488
H       -0.2102755908    1.2864391621    1.4186461355
H       -0.3770648234   -1.6017085425    1.3631227493
H        2.4881225315   -1.4188537764   -0.2710517665
H        0.5708256041   -0.2821272544   -2.5508441048
