3    
Iteration 0 Energy -92.24601703
C       -0.0519091549   -0.6447602898    0.0000000000
N       -0.6780456456    0.3584299778    0.0000000000
H        0.7299548005    0.2863303120    0.0000000000
3    
Iteration 1 Energy -92.24601961
C       -0.0416721088   -0.6473898717    0.0035007159
N       -0.6747638395    0.3515671011   -0.0012639425
H        0.7312529172    0.2880823358   -0.0029960140
3    
Iteration 2 Energy -92.24601961
C       -0.0416596127   -0.6473950512    0.0034989208
N       -0.6747833462    0.3515418008   -0.0012604973
H        0.7312454720    0.2881138257   -0.0029958001
