3    
IRC reactant Energy -92.33969073
C       -0.5537486020   -0.9516463689   -0.0047897917
N        0.0291154515    0.0508901461    0.0003284714
H        0.5232416884    0.9007962947    0.0046674153
3    
IRC product Energy -92.35406013
C        0.0283520815   -0.0028093666    0.0002149600
N       -1.1044361741    0.0965004743   -0.0058661365
H        1.0746926305   -0.0936510357    0.0058572716
