3    
Iteration 1 Energy -92.33969073
C       -0.5537544719   -0.9516561123   -0.0047898380
N        0.0291145106    0.0508885044    0.0003284524
H        0.5232484992    0.9008076797    0.0046674806
3    
Iteration 0 Energy -92.33969073
C       -0.5537486020   -0.9516463689   -0.0047897917
N        0.0291154515    0.0508901461    0.0003284714
H        0.5232416884    0.9007962947    0.0046674153
3    
Iteration 29 Energy -92.33969073
C       -0.5537485840   -0.9516463798   -0.0047897763
N        0.0291154120    0.0508901692    0.0003284379
H        0.5232417099    0.9007962825    0.0046674334
3    
Iteration 28 Energy -92.33968422
C       -0.5519480570   -0.9526804539   -0.0032685572
N        0.0252087629    0.0531744885   -0.0029870077
H        0.5253478319    0.8995460374    0.0064616600
3    
Iteration 27 Energy -92.33967152
C       -0.5506463831   -0.9534020492   -0.0021782734
N        0.0224115970    0.0548158571   -0.0053629823
H        0.5268433240    0.8986262640    0.0077473508
3    
Iteration 26 Energy -92.33965854
C       -0.5496189765   -0.9536948522   -0.0014185683
N        0.0204268800    0.0558934052   -0.0070171122
H        0.5278006344    0.8978415189    0.0086417755
3    
Iteration 25 Energy -92.33964623
C       -0.5487328738   -0.9534558765   -0.0009424625
N        0.0191204033    0.0564515494   -0.0080508843
H        0.5282210084    0.8970443990    0.0091994419
3    
Iteration 24 Energy -92.33963324
C       -0.5480236151   -0.9529291237   -0.0006836265
N        0.0183992475    0.0567245732   -0.0086087335
H        0.5282329054    0.8962446224    0.0094984551
3    
Iteration 23 Energy -92.33962041
C       -0.5474972837   -0.9523896185   -0.0005457033
N        0.0180522729    0.0569233439   -0.0089017002
H        0.5280535487    0.8955063465    0.0096534986
3    
Iteration 22 Energy -92.33960893
C       -0.5471142301   -0.9519380523   -0.0004667988
N        0.0178976164    0.0571046541   -0.0090660697
H        0.5278251516    0.8948734701    0.0097389636
3    
Iteration 21 Energy -92.33959932
C       -0.5468392486   -0.9515902090   -0.0004187848
N        0.0178341184    0.0572629743   -0.0091641225
H        0.5276136682    0.8943673066    0.0097890024
3    
Iteration 20 Energy -92.33959165
C       -0.5466437414   -0.9513329008   -0.0003882909
N        0.0178115089    0.0573914727   -0.0092253197
H        0.5274407705    0.8939814999    0.0098197057
3    
Iteration 19 Energy -92.33958575
C       -0.5465053946   -0.9511464610   -0.0003683016
N        0.0178060942    0.0574905870   -0.0092648800
H        0.5273078383    0.8936959460    0.0098392767
3    
Iteration 18 Energy -92.33958132
C       -0.5464076707   -0.9510127905   -0.0003549016
N        0.0178072923    0.0575646788   -0.0092911188
H        0.5272089163    0.8934881836    0.0098521155
3    
Iteration 17 Energy -92.33957805
C       -0.5463386711   -0.9509174917   -0.0003457750
N        0.0178105477    0.0576190105   -0.0093088490
H        0.5271366613    0.8933385531    0.0098607192
3    
Iteration 16 Energy -92.33957567
C       -0.5462899492   -0.9508497617   -0.0003394901
N        0.0178140157    0.0576583714   -0.0093209886
H        0.5270844714    0.8932314622    0.0098665738
3    
Iteration 15 Energy -92.33957395
C       -0.5462555373   -0.9508017131   -0.0003351281
N        0.0178170377    0.0576866654   -0.0093293786
H        0.5270470374    0.8931551195    0.0098706019
3    
Iteration 14 Energy -92.33957272
C       -0.5462312351   -0.9507676363   -0.0003321002
N        0.0178195687    0.0577069942   -0.0093351781
H        0.5270202043    0.8931007140    0.0098733734
3    
Iteration 13 Energy -92.33957272
C       -0.5462312505   -0.9507676196   -0.0003321161
N        0.0178196092    0.0577069695   -0.0093351434
H        0.5270201792    0.8931007220    0.0098733546
3    
Iteration 12 Energy -92.33958786
C       -0.5465140601   -0.9512630868   -0.0003313089
N        0.0177562385    0.0576232262   -0.0093449034
H        0.5273663595    0.8936799325    0.0098823074
3    
Iteration 11 Energy -92.33958119
C       -0.5508558312   -0.9466863644   -0.0047587001
N        0.0291990250    0.0510348242    0.0003288663
H        0.5202653441    0.8956916121    0.0046359288
3    
Iteration 10 Energy -92.33751865
C       -0.5090795448   -0.9687449236   -0.0045685055
N       -0.0590125319    0.1037982242   -0.0000611262
H        0.5667006146    0.8649867713    0.0048357268
3    
Iteration 9 Energy -92.33188900
C       -0.4603378438   -0.9663507656   -0.0042938168
N       -0.1298395442    0.1560155594   -0.0003557733
H        0.5887859259    0.8103752781    0.0048556852
3    
Iteration 8 Energy -92.32445405
C       -0.4310464454   -0.9802297186   -0.0041574836
N       -0.2016802796    0.1831118110   -0.0007031757
H        0.6313352628    0.7971579795    0.0050667544
3    
Iteration 7 Energy -92.31636288
C       -0.3661266898   -0.9392382921   -0.0037206911
N       -0.2504326332    0.2330570699   -0.0008797166
H        0.6151678609    0.7062212941    0.0048065028
3    
Iteration 6 Energy -92.30727535
C       -0.3252033800   -0.9261993430   -0.0034693698
N       -0.3089758665    0.2639658196   -0.0011462517
H        0.6327877844    0.6622735953    0.0048217166
3    
Iteration 5 Energy -92.29978713
C       -0.2911472362   -0.9055801848   -0.0032418931
N       -0.3432957646    0.2858875251   -0.0012953690
H        0.6330515387    0.6197327316    0.0047433573
3    
Iteration 4 Energy -92.29412903
C       -0.2683271993   -0.8914842452   -0.0030889429
N       -0.3707647350    0.2987949505   -0.0014234227
H        0.6377004721    0.5927293666    0.0047184607
3    
Iteration 3 Energy -92.28983611
C       -0.2556495222   -0.8843835769   -0.0030053417
N       -0.3946454763    0.3041108011   -0.0015458296
H        0.6489035364    0.5803128477    0.0047572664
3    
Iteration 2 Energy -92.27002309
C       -0.1626896070   -0.8043743753   -0.0023398996
N       -0.4503812950    0.3510760814   -0.0017666743
H        0.6116794399    0.4533383658    0.0043126690
3    
Iteration 1 Energy -92.25398167
C       -0.0894829307   -0.7285792947   -0.0017918653
N       -0.5485028612    0.3737594796   -0.0022680429
H        0.6365943298    0.3548598870    0.0042660033
3    
Iteration 0 Energy -92.24601961
C       -0.0518495885   -0.6444470188   -0.0014253861
N       -0.6775204940    0.3591850610   -0.0030105903
H        0.7279786204    0.2853020297    0.0046420715
3    
Iteration 1 Energy -92.25044154
C       -0.0120199183   -0.5629734278   -0.0010517203
N       -0.7546344433    0.3444624599   -0.0034656911
H        0.7652628994    0.2185510398    0.0047235065
3    
Iteration 2 Energy -92.25045025
C       -0.0120468033   -0.5629708636   -0.0010518645
N       -0.7546773103    0.3444508756   -0.0034659505
H        0.7653326515    0.2185600599    0.0047239101
3    
Iteration 3 Energy -92.25046256
C       -0.0120847792   -0.5629671797   -0.0010520681
N       -0.7547379579    0.3444344888   -0.0034663174
H        0.7654312749    0.2185727628    0.0047244806
3    
Iteration 4 Energy -92.25047993
C       -0.0121383943   -0.5629618549   -0.0010523553
N       -0.7548237753    0.3444113063   -0.0034668366
H        0.7655707074    0.2185906205    0.0047252871
3    
Iteration 5 Energy -92.25050444
C       -0.0122140345   -0.5629540913   -0.0010527601
N       -0.7549452366    0.3443785041   -0.0034675715
H        0.7657678090    0.2186156591    0.0047264267
3    
Iteration 6 Energy -92.25053900
C       -0.0123203885   -0.5629423391   -0.0010533276
N       -0.7551173239    0.3443320628   -0.0034686126
H        0.7660462503    0.2186503482    0.0047280353
3    
Iteration 7 Energy -92.25058764
C       -0.0124699079   -0.5629246058   -0.0010541232
N       -0.7553611447    0.3442663089   -0.0034700876
H        0.7664395904    0.2186983688    0.0047303058
3    
Iteration 8 Energy -92.25065598
C       -0.0126795690   -0.5628972896   -0.0010552341
N       -0.7557068509    0.3441731672   -0.0034721787
H        0.7669949577    0.2187641944    0.0047335080
3    
Iteration 9 Energy -92.25075175
C       -0.0129724580   -0.5628541873   -0.0010567769
N       -0.7561974979    0.3440411555   -0.0034751463
H        0.7677784938    0.2188531036    0.0047380183
3    
Iteration 10 Energy -92.25088554
C       -0.0133791435   -0.5627838287   -0.0010588993
N       -0.7568950412    0.3438538049   -0.0034793646
H        0.7688827226    0.2189700957    0.0047443590
3    
Iteration 11 Energy -92.25107154
C       -0.0139392029   -0.5626660567   -0.0010617830
N       -0.7578880824    0.3435877478   -0.0034853687
H        0.7704358232    0.2191183807    0.0047532468
3    
Iteration 12 Energy -92.25132862
C       -0.0147002381   -0.5624624851   -0.0010656197
N       -0.7593047759    0.3432093526   -0.0034939321
H        0.7726135519    0.2192932045    0.0047656469
3    
Iteration 13 Energy -92.25168143
C       -0.0157133383   -0.5621015513   -0.0010705586
N       -0.7613292791    0.3426706124   -0.0035061656
H        0.7756511553    0.2194710108    0.0047828193
3    
Iteration 14 Energy -92.25216213
C       -0.0170184239   -0.5614489343   -0.0010765687
N       -0.7642246729    0.3419030101   -0.0035236563
H        0.7798516348    0.2195859961    0.0048063201
3    
Iteration 15 Energy -92.25281418
C       -0.0186154454   -0.5602615952   -0.0010831938
N       -0.7683579191    0.3408098156   -0.0035486199
H        0.7855819024    0.2194918515    0.0048379088
3    
Iteration 16 Energy -92.25370134
C       -0.0204289017   -0.5581340326   -0.0010892545
N       -0.7742185467    0.3392562446   -0.0035840230
H        0.7932559863    0.2189178600    0.0048793726
3    
Iteration 17 Energy -92.25492678
C       -0.0223098761   -0.5544723017   -0.0010928109
N       -0.7824337719    0.3370534924   -0.0036336966
H        0.8033521860    0.2174588812    0.0049326027
3    
Iteration 18 Energy -92.25665610
C       -0.0241364064   -0.5485519323   -0.0010918275
N       -0.7937920330    0.3339381380   -0.0037025059
H        0.8165369773    0.2146538662    0.0050004285
3    
Iteration 19 Energy -92.25888768
C       -0.0181391998   -0.5356891880   -0.0010344474
N       -0.8037188015    0.3308007995   -0.0037634210
H        0.8204665392    0.2049284604    0.0050039635
3    
Iteration 20 Energy -92.26128061
C       -0.0238930780   -0.5298853707   -0.0010554537
N       -0.8189224674    0.3263570175   -0.0038560396
H        0.8414240833    0.2035684251    0.0051175884
3    
Iteration 21 Energy -92.26428099
C       -0.0215548140   -0.5177228323   -0.0010196706
N       -0.8323244255    0.3220423904   -0.0039384282
H        0.8524877774    0.1957205137    0.0051641939
3    
Iteration 22 Energy -92.26884951
C       -0.0169996613   -0.4994309330   -0.0009600974
N       -0.8499160941    0.3158009571   -0.0040476576
H        0.8655242933    0.1836700477    0.0052138501
3    
Iteration 23 Energy -92.27576860
C       -0.0139167119   -0.4742430639   -0.0008957461
N       -0.8754143621    0.3060336075   -0.0042073325
H        0.8879396119    0.1682495283    0.0053091737
3    
Iteration 24 Energy -92.28612584
C       -0.0066414585   -0.4361209347   -0.0007838859
N       -0.9077136928    0.2917090270   -0.0044132596
H        0.9129636892    0.1444519797    0.0054032406
3    
Iteration 25 Energy -92.29904080
C       -0.0167746962   -0.3909592455   -0.0007553199
N       -0.9577971738    0.2696780981   -0.0047322317
H        0.9731804078    0.1213212193    0.0056936467
3    
Iteration 26 Energy -92.31777690
C        0.0131046167   -0.3085651949   -0.0004350861
N       -0.9948658108    0.2381890863   -0.0049968036
H        0.9803697320    0.0704161804    0.0056379848
3    
Iteration 27 Energy -92.33689110
C       -0.0073642057   -0.2022968429   -0.0003491575
N       -1.0669901813    0.1880838272   -0.0054906351
H        1.0729629248    0.0142530876    0.0060458876
3    
Iteration 28 Energy -92.34039771
C        0.0068333545   -0.1886087760   -0.0002447707
N       -1.0648837066    0.1824382064   -0.0054895511
H        1.0566588900    0.0062106415    0.0059404169
3    
Iteration 29 Energy -92.34379992
C        0.0152679708   -0.1640633030   -0.0001519581
N       -1.0711534383    0.1715866212   -0.0055446683
H        1.0544940053   -0.0074832463    0.0059027215
3    
Iteration 30 Energy -92.34780348
C        0.0168603253   -0.1276941465   -0.0000748899
N       -1.0829827895    0.1549167011   -0.0056415221
H        1.0647310020   -0.0271824827    0.0059225070
3    
Iteration 31 Energy -92.35172374
C        0.0249640936   -0.0771927731    0.0000647909
N       -1.0998512703    0.1320806738   -0.0057778797
H        1.0734957145   -0.0548478288    0.0059191839
3    
Iteration 32 Energy -92.35233903
C        0.0235025150   -0.0676477012    0.0000718449
N       -1.0995336061    0.1274332626   -0.0057835225
H        1.0746396290   -0.0597454895    0.0059177727
3    
Iteration 33 Energy -92.35302004
C        0.0241750556   -0.0531559633    0.0001038681
N       -1.1001568930    0.1204829650   -0.0058005492
H        1.0745903753   -0.0672869298    0.0059027762
3    
Iteration 34 Energy -92.35369295
C        0.0257280569   -0.0325260377    0.0001510572
N       -1.1023577347    0.1106980766   -0.0058310478
H        1.0752382158   -0.0781319670    0.0058860856
3    
Iteration 35 Energy -92.35405976
C        0.0283253843   -0.0033649317    0.0002413277
N       -1.1042037095    0.0967480650   -0.0058776151
H        1.0744868632   -0.0933430614    0.0058423824
3    
Iteration 36 Energy -92.35406013
C        0.0283520815   -0.0028093666    0.0002149600
N       -1.1044361741    0.0965004743   -0.0058661365
H        1.0746926305   -0.0936510357    0.0058572716
3    
Iteration 1 Energy -92.35406017
C        0.0283901422   -0.0026061979    0.0002210357
N       -1.1044064092    0.0963986537   -0.0058687961
H        1.0746248049   -0.0937523838    0.0058538556
