13   
IRC product Energy -340.99814085
C       -2.8259946531    0.5594852395    1.1406565379
N       -3.4439533942    1.4889410015    1.5101305925
C        1.2327732955    0.4904816757   -0.3366933138
C       -0.1395547583    0.5314990500    0.1858876392
C       -0.9900317718   -0.5679319911    0.2957806456
N       -2.2476593178   -0.5626457301    0.7499451270
C        2.0735933003   -0.7869756049   -0.2904678810
C        1.6282793071   -0.4762978703   -1.4592469853
H        1.7529842946    1.4476186970   -0.2846515305
H       -0.5172689074    1.5002953660    0.5091397380
H       -0.6338677556   -1.5502231925   -0.0062444613
H        2.6053316423   -1.4398340544    0.3845868517
H        1.4958038320   -0.6633904949   -2.5136115723
