13   
Iteration 0 Energy -340.99814085
C       -2.8259946531    0.5594852395    1.1406565379
N       -3.4439533942    1.4889410015    1.5101305925
C        1.2327732955    0.4904816757   -0.3366933138
C       -0.1395547583    0.5314990500    0.1858876392
C       -0.9900317718   -0.5679319911    0.2957806456
N       -2.2476593178   -0.5626457301    0.7499451270
C        2.0735933003   -0.7869756049   -0.2904678810
C        1.6282793071   -0.4762978703   -1.4592469853
H        1.7529842946    1.4476186970   -0.2846515305
H       -0.5172689074    1.5002953660    0.5091397380
H       -0.6338677556   -1.5502231925   -0.0062444613
H        2.6053316423   -1.4398340544    0.3845868517
H        1.4958038320   -0.6633904949   -2.5136115723
13   
Iteration 1 Energy -340.99815124
C       -2.8238434382    0.5556978177    1.1516202148
N       -3.4364705079    1.4814259572    1.5389882270
C        1.2315983548    0.4914045626   -0.3400328236
C       -0.1433133355    0.5334506722    0.1757706678
C       -0.9947456966   -0.5655361744    0.2829225809
N       -2.2508970821   -0.5622716526    0.7413709970
C        2.0733516618   -0.7849098117   -0.2830970737
C        1.6343237819   -0.4802948059   -1.4558462562
H        1.7508715128    1.4491075552   -0.2890047595
H       -0.5218239009    1.5025386693    0.4970754983
H       -0.6394557094   -1.5468013879   -0.0235224398
H        2.6019356367   -1.4339199800    0.3981288070
H        1.5079636950   -0.6726268081   -2.5100199386
13   
Iteration 2 Energy -340.99815485
C       -2.8194581083    0.5529622087    1.1576578021
N       -3.4264804352    1.4774522634    1.5566754735
C        1.2287012685    0.4925995254   -0.3425580362
C       -0.1472546364    0.5326864784    0.1706626112
C       -0.9974649539   -0.5676036106    0.2734591737
N       -2.2521464029   -0.5635309262    0.7357407905
C        2.0734733640   -0.7813170081   -0.2773479291
C        1.6379259575   -0.4826187427   -1.4529121231
H        1.7454630767    1.4517453166   -0.2932346453
H       -0.5270040937    1.5005943641    0.4940507987
H       -0.6446743623   -1.5469417677   -0.0420110098
H        2.6012237054   -1.4259892827    0.4086309002
H        1.5158356927   -0.6798301751   -2.5066886433
13   
Iteration 3 Energy -340.99815675
C       -2.8211292232    0.5431320694    1.1678211894
N       -3.4252809695    1.4611441684    1.5857362597
C        1.2279251600    0.4945665718   -0.3482536844
C       -0.1486480313    0.5340763179    0.1635531023
C       -1.0024133340   -0.5641040918    0.2599770400
N       -2.2553515135   -0.5667140776    0.7270168427
C        2.0756177379   -0.7767731083   -0.2693894579
C        1.6439815350   -0.4884183997   -1.4489757034
H        1.7423380305    1.4552214673   -0.3038453917
H       -0.5259757272    1.5008945907    0.4928324988
H       -0.6542776508   -1.5394646429   -0.0723363370
H        2.6020823963   -1.4142782394    0.4242284614
H        1.5265505439   -0.6948428306   -2.5015241932
13   
Iteration 4 Energy -340.99816335
C       -2.8210585882    0.5421146187    1.1646215290
N       -3.4257744725    1.4605898117    1.5806688843
C        1.2272356028    0.4946773934   -0.3476791446
C       -0.1484900862    0.5330565181    0.1663443864
C       -1.0016783404   -0.5658647205    0.2593054958
N       -2.2548655903   -0.5682523882    0.7256486599
C        2.0768788362   -0.7757847390   -0.2704711865
C        1.6418623525   -0.4879792262   -1.4489258122
H        1.7407006890    1.4558721237   -0.3043251197
H       -0.5252655923    1.4985803697    0.5001424174
H       -0.6522829975   -1.5412438326   -0.0716703712
H        2.6056465787   -1.4124855187    0.4221041466
H        1.5222296290   -0.6947858798   -2.5011612013
13   
Iteration 5 Energy -340.99816985
C       -2.8205663579    0.5348108175    1.1635903878
N       -3.4223581103    1.4518998386    1.5868325851
C        1.2241253144    0.4960792328   -0.3501466730
C       -0.1500775462    0.5270860291    0.1683683938
C       -1.0049412222   -0.5715265305    0.2491589947
N       -2.2577504166   -0.5740466368    0.7164845172
C        2.0831835133   -0.7686700099   -0.2683895849
C        1.6425803755   -0.4890396188   -1.4467067543
H        1.7314488253    1.4607295186   -0.3118543360
H       -0.5248861532    1.4880826292    0.5170943396
H       -0.6569925303   -1.5449506299   -0.0889916947
H        2.6175946462   -1.3979890460    0.4265146735
H        1.5217098228   -0.7023898697   -2.4975276420
13   
Iteration 6 Energy -340.99816827
C       -2.8219940505    0.5190027398    1.1657811238
N       -3.4255378199    1.4284075369    1.6028696320
C        1.2221176014    0.4987102889   -0.3543363062
C       -0.1500987031    0.5300199666    0.1688905112
C       -1.0041749608   -0.5701556787    0.2348888334
N       -2.2568769219   -0.5820102823    0.7024476288
C        2.0850588661   -0.7636844021   -0.2627388385
C        1.6412099141   -0.4946250486   -1.4422703790
H        1.7273568204    1.4647061913   -0.3240476900
H       -0.5219064067    1.4869497522    0.5319129216
H       -0.6551881149   -1.5382801202   -0.1171770356
H        2.6217492079   -1.3852703504    0.4372836799
H        1.5192218904   -0.7178994013   -2.4909443103
13   
Iteration 7 Energy -340.99817207
C       -2.8215657609    0.5205515992    1.1675230993
N       -3.4229012361    1.4314033568    1.6046589740
C        1.2216527404    0.4979803250   -0.3545294484
C       -0.1512517624    0.5261506005    0.1674336792
C       -1.0069377787   -0.5726926718    0.2353076506
N       -2.2594045629   -0.5817033027    0.7035294166
C        2.0874971321   -0.7623651685   -0.2629783450
C        1.6444365707   -0.4934402340   -1.4428462022
H        1.7247699131    1.4650594689   -0.3229664973
H       -0.5238344049    1.4833263550    0.5288899820
H       -0.6602028286   -1.5414684754   -0.1171465331
H        2.6248935331   -1.3832454591    0.4371421338
H        1.5243305682   -0.7161151959   -2.4918710276
13   
Iteration 8 Energy -340.99817224
C       -2.8214890654    0.5175950755    1.1683605993
N       -3.4231511495    1.4277345227    1.6065297671
C        1.2215159771    0.4984762580   -0.3549674495
C       -0.1514631830    0.5251671565    0.1668603267
C       -1.0069711832   -0.5738676272    0.2338552611
N       -2.2594013101   -0.5837710012    0.7021495373
C        2.0879881540   -0.7613665638   -0.2623316760
C        1.6451142264   -0.4933304551   -1.4425030023
H        1.7239962800    1.4659148903   -0.3236889749
H       -0.5245672471    1.4819608390    0.5287343894
H       -0.6602928574   -1.5420275626   -0.1203510156
H        2.6253550282   -1.3815785719    0.4383947798
H        1.5255073351   -0.7168037476   -2.4914182839
13   
Iteration 9 Energy -340.99817208
C       -2.8220991891    0.5112842821    1.1695033306
N       -3.4248391794    1.4199977919    1.6091428129
C        1.2207496540    0.4984831414   -0.3556593036
C       -0.1522343471    0.5231347801    0.1663184554
C       -1.0071824202   -0.5764389668    0.2313630550
N       -2.2595830989   -0.5883492163    0.6996912277
C        2.0899758880   -0.7595060280   -0.2617789000
C        1.6470315000   -0.4930755621   -1.4422712618
H        1.7213886947    1.4668715093   -0.3246608319
H       -0.5261488871    1.4791387516    0.5294163614
H       -0.6602680146   -1.5434074143   -0.1258226204
H        2.6282119156   -1.3780951451    0.4396952334
H        1.5287154743   -0.7175395763   -2.4911261050
13   
Iteration 10 Energy -340.99817179
C       -2.8228222699    0.5034357443    1.1691886184
N       -3.4275539832    1.4106842139    1.6091248046
C        1.2202344021    0.4988336832   -0.3557717178
C       -0.1528049336    0.5209109125    0.1661594460
C       -1.0061933461   -0.5799873074    0.2293193256
N       -2.2586783128   -0.5945153294    0.6973605188
C        2.0915257274   -0.7577659366   -0.2616364340
C        1.6481664439   -0.4921436103   -1.4421705437
H        1.7193048679    1.4680377280   -0.3246586478
H       -0.5281550724    1.4759336114    0.5303694414
H       -0.6578998879   -1.5458120493   -0.1296364989
H        2.6305097026   -1.3754710152    0.4400424293
H        1.5305382484   -0.7169737835   -2.4910360707
13   
Iteration 11 Energy -340.99817188
C       -2.8232671911    0.4998337931    1.1681915364
N       -3.4290484985    1.4065810840    1.6077174040
C        1.2200307420    0.4988790655   -0.3554734163
C       -0.1530971716    0.5199263200    0.1662388941
C       -1.0053078772   -0.5819089445    0.2289819746
N       -2.2578697507   -0.5976406740    0.6967708317
C        2.0919979425   -0.7572626806   -0.2619220388
C        1.6485288934   -0.4913612022   -1.4423537108
H        1.7185231947    1.4683652146   -0.3238845957
H       -0.5293462823    1.4745430987    0.5306096627
H       -0.6558634806   -1.5474125818   -0.1297288952
H        2.6312666364   -1.3750439887    0.4394785764
H        1.5311082526   -0.7157231490   -2.4913428756
