13   
Iteration 0 Energy -340.95660095
C       -0.8798776943    1.7069497443    0.4846835232
N       -1.4733367708    2.6818353351    0.2758172486
C        0.9352881498    0.3109855274   -0.4569744699
C       -0.0655819652    0.5051467843    0.7140691871
C       -0.9181265765   -0.7410908142    0.9664472048
N       -2.1660129586   -0.7938127642    0.9542136478
C        1.3774757656   -1.0441282228   -0.9326413811
C        0.5619021114   -0.4100721749   -1.7176301206
H        1.6283938452    1.1569877194   -0.5068539391
H        0.5169273617    0.6739147895    1.6327956374
H       -0.3364228697   -1.6522091801    1.1785496137
H        1.9958926428   -1.9054456700   -0.7268833771
H       -0.0000916056   -0.3518889350   -2.6374567341
13   
Iteration 1 Energy -340.95660096
C       -0.8796316529    1.7076029401    0.4836125966
N       -1.4729191736    2.6825301629    0.2743869516
C        0.9354786726    0.3114545471   -0.4574243753
C       -0.0655283235    0.5057583940    0.7134261488
C       -0.9181817009   -0.7404158607    0.9656223287
N       -2.1660696081   -0.7930134029    0.9530751764
C        1.3774548748   -1.0437635120   -0.9329650625
C        0.5619751049   -0.4096469543   -1.7180122108
H        1.6287010363    1.1573586347   -0.5073086691
H        0.5168181512    0.6745571049    1.6322440990
H       -0.3365894319   -1.6515852266    1.1778408129
H        1.9957252621   -1.9051651741   -0.7271363399
H       -0.0000155338   -0.3514683266   -2.6378449392
