13   
step_01 start
C       -3.0160194447   -0.3616980970   -0.3503520321
N       -1.9292058305   -0.0288453638   -0.0355553666
C        0.4321373798   -0.4068933834   -0.5362136006
C       -0.5979294429    0.3238093325    0.3412689072
C       -0.3799042002   -0.0334661414    1.8217010767
N        0.0922304730    0.7691994842    2.6530840165
C        1.0077880045    0.2481565002   -1.7601766963
C        1.8031236248    0.1718765554   -0.7394512401
H        0.2915500582   -1.4927302676   -0.5120235842
H       -0.4728975794    1.4047299933    0.2274691776
H       -0.6356554644   -1.0660166142    2.1063201775
H        0.8150013056    0.5304817447   -2.7841502015
H        2.7660317832    0.3445027350   -0.2827697027
13   
step_01 end
C       -1.4919015705    1.7713457681    0.1206099234
N       -0.5601084537    1.2311396495    0.6009565575
C        1.4570226600   -0.0382982340   -0.0212194016
C        0.5691256199    0.5351122655    1.1106746947
C        0.0998869808   -0.6095635500    2.0244689639
N        0.6118332519   -0.8470083975    3.1380777603
C        0.8941677864   -0.5622092591   -1.3087630459
C        1.5063140717    0.5782562757   -1.3870778981
H        2.3520044070   -0.4941304950    0.4148704983
H        1.1644424624    1.2281661864    1.7147834749
H       -0.6992508374   -1.2463939740    1.6149853129
H        0.3580540411   -1.3680923404   -1.7871849827
H        1.8510327399    1.4189411279   -1.9698689743
