13   
Iteration 17 Energy -340.92393753
C       -2.4075590621    0.2000567085   -1.2605904765
N       -1.5919765546    0.2927162737   -0.4148594095
C        0.8491537523    0.2082914886   -0.1032984894
C       -0.5499356369    0.3895703516    0.5400610222
C       -0.7217206162   -0.6217165289    1.6815939820
N       -1.6214931085   -1.4826765917    1.7746201018
C        1.1121592091   -0.8046273464   -1.1742267245
C        1.0882746876    0.4316662762   -1.5653018102
H        1.6300126042    0.4497999880    0.6273620965
H       -0.5929551732    1.3913669357    0.9913752343
H        0.0563944564   -0.5526705188    2.4590206016
H        1.2207765693   -1.8552926659   -1.3967983079
H        1.1629508993    1.1690489103   -2.3500636635
