13   
Iteration 0 Energy -340.92393753
C       -2.4075590621    0.2000567085   -1.2605904765
N       -1.5919765546    0.2927162737   -0.4148594095
C        0.8491537523    0.2082914886   -0.1032984894
C       -0.5499356369    0.3895703516    0.5400610222
C       -0.7217206162   -0.6217165289    1.6815939820
N       -1.6214931085   -1.4826765917    1.7746201018
C        1.1121592091   -0.8046273464   -1.1742267245
C        1.0882746876    0.4316662762   -1.5653018102
H        1.6300126042    0.4497999880    0.6273620965
H       -0.5929551732    1.3913669357    0.9913752343
H        0.0563944564   -0.5526705188    2.4590206016
H        1.2207765693   -1.8552926659   -1.3967983079
H        1.1629508993    1.1690489103   -2.3500636635
13   
Iteration 1 Energy -340.92393756
C       -2.4074022854    0.2005325829   -1.2611027843
N       -1.5919500636    0.2928425900   -0.4152078922
C        0.8491152291    0.2078884822   -0.1031560034
C       -0.5500525858    0.3894596048    0.5398858438
C       -0.7223522035   -0.6217211257    1.6814435047
N       -1.6222185233   -1.4826264000    1.7740324610
C        1.1121134917   -0.8050146509   -1.1740764162
C        1.0883782299    0.4312937570   -1.5651462098
H        1.6299240088    0.4494041171    0.6275681993
H       -0.5929175643    1.3912997455    0.9911313889
H        0.0554099633   -0.5526455428    2.4592176469
H        1.2205874171   -1.8557024886   -1.3966268974
H        1.1631778859    1.1686591677   -2.3499154862
