13   
Iteration 0 Energy -340.96791661
C       -1.7104945160   -1.3578085495    0.0043123850
N       -2.3923983013   -1.4246920494   -0.9545742402
C        0.5797640439    1.0528976902   -0.3278284351
C        0.3969720968    0.6052561940    1.0590691946
C       -0.2222072361   -0.5148371407    1.6310880913
N       -1.0777993905   -1.4160891928    1.1503334954
C        1.2820941780    0.1335872859   -1.3524388714
C        0.0354360974    0.3675991310   -1.5728108013
H        0.8125538636    2.1186256031   -0.3889952542
H        0.9058973718    1.2324502704    1.7913218877
H        0.0273410101   -0.6970058477    2.6761143123
H        2.2321246742   -0.3259422762   -1.5733014944
H       -0.8692838918    0.2259588816   -2.1422902698
13   
Iteration 1 Energy -340.96752900
C       -1.6412453959   -1.3539827624   -0.0407218640
N       -2.2552590034   -1.4461687613   -1.0423158191
C        0.5798221543    1.0506094057   -0.3170942972
C        0.4113914196    0.6157552223    1.0755208728
C       -0.2315508894   -0.4914476157    1.6415221035
N       -1.0822281502   -1.3864376555    1.1439554917
C        1.2318943839    0.1079474371   -1.3493010565
C       -0.0131928226    0.3696107575   -1.5404457615
H        0.8365968189    2.1109435430   -0.3903942645
H        0.9465843321    1.2279890325    1.8018702730
H       -0.0061740866   -0.6705863533    2.6929693199
H        2.1644735813   -0.3776331669   -1.5896685311
H       -0.9360531582    0.2451416680   -2.0847190614
13   
Iteration 2 Energy -340.96782807
C       -1.6747807230   -1.3473493597   -0.0219409796
N       -2.3251307279   -1.4201007492   -1.0019715826
C        0.5767456138    1.0499878844   -0.3219559838
C        0.4045745980    0.6123111449    1.0693299149
C       -0.2229664336   -0.5043120155    1.6344495224
N       -1.0744997597   -1.4011813084    1.1415801592
C        1.2565527069    0.1190862951   -1.3474255886
C        0.0097544416    0.3608195004   -1.5532180531
H        0.8172460411    2.1142542136   -0.3922704452
H        0.9240225666    1.2345528060    1.7985832344
H        0.0157914352   -0.6889151465    2.6819535669
H        2.1998951838   -0.3503929953   -1.5774217708
H       -0.9041819939    0.2222798586   -2.1089884740
13   
Iteration 3 Energy -340.96799932
C       -1.6902574996   -1.3638852732   -0.0087362600
N       -2.3460852792   -1.4492253258   -0.9840543942
C        0.5834387278    1.0535692542   -0.3242850942
C        0.4033307975    0.6091183637    1.0641321786
C       -0.2280993073   -0.5040889594    1.6319853313
N       -1.0829322390   -1.4046697127    1.1515742414
C        1.2642563097    0.1263222196   -1.3519805725
C        0.0197137271    0.3742046404   -1.5623758296
H        0.8285055473    2.1173782764   -0.3871529721
H        0.9236388090    1.2282485956    1.7953816508
H        0.0127987208   -0.6831427197    2.6800111663
H        2.2068693516   -0.3454911364   -1.5803369572
H       -0.8919686519    0.2427429737   -2.1234314352
13   
Iteration 4 Energy -340.96805768
C       -1.6823962871   -1.3809220688   -0.0037969712
N       -2.3167556869   -1.4906571782   -0.9907570245
C        0.5896622374    1.0530184737   -0.3253257848
C        0.4036043261    0.6010445537    1.0604415207
C       -0.2378676144   -0.4981109920    1.6430392110
N       -1.0961544919   -1.3976496117    1.1680160859
C        1.2566312451    0.1280622388   -1.3609388862
C        0.0160762661    0.3952170027   -1.5700013720
H        0.8489323328    2.1145466687   -0.3769544715
H        0.9353077498    1.2132273016    1.7891584885
H       -0.0046664941   -0.6627718770    2.6955229977
H        2.1925646580   -0.3548017483   -1.5941664164
H       -0.8969067809    0.2823658754   -2.1328544708
13   
Iteration 5 Energy -340.96804340
C       -1.6717717501   -1.4080289600   -0.0080823987
N       -2.2798467373   -1.5557695520   -1.0065194894
C        0.6016148948    1.0560021376   -0.3216563829
C        0.4154361925    0.6049923982    1.0648802510
C       -0.2500632011   -0.4834219760    1.6388468812
N       -1.1110502309   -1.3861075521    1.1758233978
C        1.2419870186    0.1263125128   -1.3655906805
C        0.0057521141    0.4181569542   -1.5656221285
H        0.8799992106    2.1134672249   -0.3675109463
H        0.9629718311    1.2026892063    1.7943249314
H       -0.0334290553   -0.6360623602    2.6966387668
H        2.1665162136   -0.3736824652   -1.6086818612
H       -0.9125871687    0.3261241859   -2.1233120234
13   
Iteration 6 Energy -340.96809249
C       -1.6767438067   -1.3944210058   -0.0079695989
N       -2.2992567879   -1.5241892151   -1.0000903349
C        0.5981954171    1.0537379725   -0.3226552180
C        0.4131592103    0.6016895438    1.0638747179
C       -0.2440930982   -0.4909467536    1.6431298696
N       -1.1046087180   -1.3905329038    1.1705994397
C        1.2512052297    0.1292055008   -1.3663741293
C        0.0105418035    0.4053657500   -1.5662151994
H        0.8639748910    2.1136999341   -0.3705016758
H        0.9529169263    1.2070266989    1.7925760035
H       -0.0264559816   -0.6462570185    2.6999782055
H        2.1815097805   -0.3596271118   -1.6089069043
H       -0.9059353864    0.3001246405   -2.1242564539
13   
Iteration 7 Energy -340.96809620
C       -1.6743467569   -1.3936743709   -0.0089159069
N       -2.2954006434   -1.5244456395   -1.0019128584
C        0.5988082348    1.0525865106   -0.3220833991
C        0.4145010577    0.6004225593    1.0644885651
C       -0.2452232111   -0.4896929680    1.6447712177
N       -1.1056802841   -1.3882353876    1.1709262554
C        1.2508154982    0.1297678977   -1.3677303276
C        0.0097635997    0.4053547145   -1.5655709458
H        0.8638836606    2.1128245204   -0.3693407116
H        0.9548760132    1.2053477589    1.7929935165
H       -0.0288542346   -0.6450135373    2.7018322651
H        2.1809070819   -0.3584482118   -1.6125599915
H       -0.9069960395    0.2996456033   -2.1231946466
13   
Iteration 8 Energy -340.96809821
C       -1.6732379872   -1.3942936039   -0.0099135479
N       -2.2931222183   -1.5275859962   -1.0034336564
C        0.6009372169    1.0516541576   -0.3211941076
C        0.4176638826    0.5988360243    1.0653718724
C       -0.2467573500   -0.4881267528    1.6459998188
N       -1.1081683493   -1.3852999302    1.1712620047
C        1.2514298493    0.1315924152   -1.3698540485
C        0.0094962619    0.4060115496   -1.5643716002
H        0.8648308576    2.1122899440   -0.3674411328
H        0.9592842419    1.2027555980    1.7937686581
H       -0.0336692519   -0.6421530014    2.7038956607
H        2.1811895715   -0.3554509639   -1.6182866372
H       -0.9078067323    0.2993689549   -2.1209266745
13   
Iteration 9 Energy -340.96809844
C       -1.6735909488   -1.3939113785   -0.0097659558
N       -2.2935461489   -1.5270423395   -1.0032816082
C        0.6011567252    1.0515033927   -0.3210429685
C        0.4184869597    0.5984154640    1.0655412364
C       -0.2468237743   -0.4879826325    1.6461017911
N       -1.1088234092   -1.3846614872    1.1714985363
C        1.2520362690    0.1322465549   -1.3700554611
C        0.0099467430    0.4061074395   -1.5643908690
H        0.8644915647    2.1123202559   -0.3670475132
H        0.9606275678    1.2019605846    1.7938763416
H       -0.0339391149   -0.6420681006    2.7040414639
H        2.1819989932   -0.3542183075   -1.6188772245
H       -0.9072550996    0.2989964261   -2.1210334293
