13   
Climbing Image - Chain 14 Image 3 Energy  -340.8977918620 (+17.085 kcal/mol) RMSGrad 0.041 eV/Ang
C       -2.1605393179    1.6117698644    0.3315746124
N       -0.9606837572    1.7705003596    0.2817729313
C        0.9124726410    0.3281119631   -0.4510611557
C       -0.0947765041    0.6433609791    0.6596286797
C       -1.0494577023   -0.4899721187    1.0286817749
N       -2.2938457058   -0.2985127084    0.9693373026
C        1.4692808292   -1.0497890199   -0.6888279578
C        0.6193135201   -0.6274025865   -1.5729205565
H        1.5404863511    1.2038320235   -0.6478024833
H        0.4548890682    0.9454255030    1.5617517757
H       -0.6679071563   -1.4580486629    1.3632254590
H        2.1562938386   -1.8079949317   -0.3419268137
H        0.0743447787   -0.7712573834   -2.4933925579
