13   
IRC reactant Energy -340.92393772
C       -2.3931275454    0.1149593520   -1.2248484810
N       -1.5727103268    0.2367181962   -0.3875223041
C        0.8732328080    0.2835224231   -0.1083298364
C       -0.5248349526    0.3743098142    0.5559435020
C       -0.6243254025   -0.6658341871    1.6800101205
N       -1.4709971796   -1.5797565462    1.7659537317
C        1.1777938799   -0.6933948472   -1.2014061847
C        1.0793489852    0.5464948203   -1.5687935907
H        1.6492813009    0.5556267416    0.6166943681
H       -0.6174993114    1.3636973256    1.0267499080
H        0.1572253224   -0.5653959469    2.4505437046
H        1.3418439111   -1.7321457801   -1.4450101079
H        1.1018312764    1.3009135041   -2.3405010375
