13   
Iteration 0 Energy -340.92393772
C       -2.3931275454    0.1149593520   -1.2248484810
N       -1.5727103268    0.2367181962   -0.3875223041
C        0.8732328080    0.2835224231   -0.1083298364
C       -0.5248349526    0.3743098142    0.5559435020
C       -0.6243254025   -0.6658341871    1.6800101205
N       -1.4709971796   -1.5797565462    1.7659537317
C        1.1777938799   -0.6933948472   -1.2014061847
C        1.0793489852    0.5464948203   -1.5687935907
H        1.6492813009    0.5556267416    0.6166943681
H       -0.6174993114    1.3636973256    1.0267499080
H        0.1572253224   -0.5653959469    2.4505437046
H        1.3418439111   -1.7321457801   -1.4450101079
H        1.1018312764    1.3009135041   -2.3405010375
13   
Iteration 1 Energy -340.92393770
C       -2.3932227415    0.1153047907   -1.2252168995
N       -1.5728472327    0.2368685705   -0.3878248499
C        0.8732115622    0.2832063264   -0.1082072589
C       -0.5250359101    0.3742320761    0.5557505485
C       -0.6249303235   -0.6658706893    1.6798139176
N       -1.4718892243   -1.5795573559    1.7654188960
C        1.1778352325   -0.6937597254   -1.2012177114
C        1.0795801121    0.5461165948   -1.5686592068
H        1.6491833182    0.5551527206    0.6169540700
H       -0.6175904104    1.3636377618    1.0265270207
H        0.1564886315   -0.5656967411    2.4505096076
H        1.3417756319   -1.7325305404   -1.4447685465
H        1.1022499222    1.3005102292   -2.3403714590
