13   
IRC product Energy -340.97576367
C       -2.3245313991    1.5114790529    1.5010950369
N       -2.4730718410    2.5274128804    2.0731598104
C        1.1630681655    0.2121572404   -0.6896792557
C       -0.0123354459    0.6722490502    0.0633417725
C       -1.1942660930   -0.0473536663    0.2222658941
N       -2.2823703508    0.3371603745    0.8956343284
C        1.4897842218   -1.2743533474   -0.8320195346
C        1.0246104791   -0.7176861335   -1.8959076128
H        1.9933505584    0.9209446300   -0.6828313242
H        0.0488987128    1.6531734716    0.5320693533
H       -1.2801956323   -1.0313949097   -0.2346434156
H        1.8417127703   -2.1329951236   -0.2799610331
H        0.6864597226   -0.7497574417   -2.9208100618
