13   
Iteration 0 Energy -340.97576367
C       -2.3245313991    1.5114790529    1.5010950369
N       -2.4730718410    2.5274128804    2.0731598104
C        1.1630681655    0.2121572404   -0.6896792557
C       -0.0123354459    0.6722490502    0.0633417725
C       -1.1942660930   -0.0473536663    0.2222658941
N       -2.2823703508    0.3371603745    0.8956343284
C        1.4897842218   -1.2743533474   -0.8320195346
C        1.0246104791   -0.7176861335   -1.8959076128
H        1.9933505584    0.9209446300   -0.6828313242
H        0.0488987128    1.6531734716    0.5320693533
H       -1.2801956323   -1.0313949097   -0.2346434156
H        1.8417127703   -2.1329951236   -0.2799610331
H        0.6864597226   -0.7497574417   -2.9208100618
13   
Iteration 1 Energy -340.97576411
C       -2.3236632474    1.5103758050    1.5022148959
N       -2.4696268910    2.5250929238    2.0770376501
C        1.1620241904    0.2121107988   -0.6897853566
C       -0.0146343134    0.6715010980    0.0618437941
C       -1.1967914409   -0.0478516585    0.2200012973
N       -2.2842317054    0.3374647575    0.8939388793
C        1.4917854744   -1.2738345363   -0.8312740395
C        1.0264765487   -0.7185066418   -1.8957717034
H        1.9911835269    0.9221936012   -0.6823815612
H        0.0460453820    1.6524730684    0.5306287697
H       -1.2836359156   -1.0316117697   -0.2373635007
H        1.8449531201   -2.1315418594   -0.2785531031
H        0.6894032758   -0.7515989781   -2.9209947327
13   
Iteration 2 Energy -340.97576405
C       -2.3257153959    1.5066150427    1.5034727335
N       -2.4721637557    2.5189176243    2.0823573345
C        1.1622277199    0.2124600977   -0.6905634644
C       -0.0146166315    0.6726577026    0.0602957861
C       -1.1968948977   -0.0467341806    0.2171356312
N       -2.2853970782    0.3360366993    0.8908681958
C        1.4922987032   -1.2736223289   -0.8298401580
C        1.0268704464   -0.7199623805   -1.8951545989
H        1.9912899850    0.9226746318   -0.6839763913
H        0.0461895988    1.6535429633    0.5293290586
H       -1.2833762508   -1.0296902943   -0.2420403701
H        1.8456450591   -2.1304066263   -0.2758012870
H        0.6897885522   -0.7546355421   -2.9203216435
13   
Iteration 3 Energy -340.97576434
C       -2.3265163293    1.5031279840    1.5028306268
N       -2.4730098490    2.5145328736    2.0832748225
C        1.1619480167    0.2133831182   -0.6908579135
C       -0.0153304138    0.6722164652    0.0600988508
C       -1.1970374379   -0.0484759229    0.2148941183
N       -2.2858422409    0.3332998605    0.8887754409
C        1.4926595505   -1.2726520829   -0.8288638340
C        1.0270386940   -0.7200204128   -1.8946592050
H        1.9904922226    0.9242303461   -0.6846952965
H        0.0447263805    1.6524324665    0.5306148637
H       -1.2830764343   -1.0304322160   -0.2465352964
H        1.8463305903   -2.1287991376   -0.2740490946
H        0.6898793889   -0.7557197671   -2.9197674014
13   
Iteration 4 Energy -340.97576463
C       -2.3288006318    1.5000824359    1.5020671258
N       -2.4756340391    2.5113465835    2.0827297594
C        1.1615046984    0.2137288713   -0.6913134021
C       -0.0166378653    0.6695591757    0.0601750496
C       -1.1985637263   -0.0510041041    0.2138697964
N       -2.2874797099    0.3302177489    0.8880217644
C        1.4949146257   -1.2717382115   -0.8293439411
C        1.0287893003   -0.7196974877   -1.8952386873
H        1.9886926460    0.9261575092   -0.6847903788
H        0.0429610696    1.6487216279    0.5328007235
H       -1.2847795236   -1.0320408107   -0.2494204394
H        1.8499003053   -2.1272814845   -0.2744471452
H        0.6920619565   -0.7559148703   -2.9204756913
13   
Iteration 5 Energy -340.97576495
C       -2.3317608078    1.4950897266    1.5012723599
N       -2.4795047447    2.5053110429    2.0835556699
C        1.1605165659    0.2138806935   -0.6916009348
C       -0.0180415868    0.6682248134    0.0601620666
C       -1.1997451244   -0.0532229283    0.2112680885
N       -2.2892898618    0.3261931779    0.8854463240
C        1.4972820775   -1.2709927584   -0.8294875773
C        1.0301811660   -0.7199338000   -1.8954204254
H        1.9863532308    0.9278308926   -0.6849449536
H        0.0409608259    1.6462931954    0.5351172097
H       -1.2849387059   -1.0334666102   -0.2538491821
H        1.8541330779   -2.1256507063   -0.2744417952
H        0.6938663610   -0.7569840150   -2.9207676131
13   
Iteration 6 Energy -340.97576512
C       -2.3342901944    1.4900414284    1.5006381232
N       -2.4829870176    2.4990379976    2.0847852327
C        1.1602231363    0.2143087459   -0.6917255779
C       -0.0191197736    0.6672452405    0.0596144638
C       -1.2006265475   -0.0550373323    0.2084987052
N       -2.2909083450    0.3224850617    0.8824233199
C        1.4990702341   -1.2702300407   -0.8292382937
C        1.0310349752   -0.7199698192   -1.8951796641
H        1.9851959686    0.9292621131   -0.6850261365
H        0.0390871197    1.6446189803    0.5361426496
H       -1.2846245487   -1.0349283794   -0.2575931195
H        1.8571249172   -2.1242360000   -0.2739743835
H        0.6946777167   -0.7578044004   -2.9204920418
13   
Iteration 7 Energy -340.97576513
C       -2.3383283347    1.4826889227    1.4996887793
N       -2.4887736805    2.4902058638    2.0859085152
C        1.1596980702    0.2148656131   -0.6920095587
C       -0.0207426434    0.6653144024    0.0590652105
C       -1.2018356802   -0.0582813273    0.2052010175
N       -2.2932377710    0.3167230656    0.8786267370
C        1.5017336380   -1.2690912819   -0.8291811604
C        1.0327606193   -0.7198461639   -1.8952370852
H        1.9832763874    0.9314280882   -0.6850177337
H        0.0361833018    1.6417644848    0.5376781598
H       -1.2843908660   -1.0373791267   -0.2628409286
H        1.8614275973   -2.1222186675   -0.2736382223
H        0.6967585957   -0.7586505573   -2.9206388162
13   
Iteration 8 Energy -340.97576510
C       -2.3417394060    1.4766760412    1.4987447880
N       -2.4939854802    2.4833536374    2.0859198433
C        1.1593347627    0.2152418495   -0.6920781853
C       -0.0220983807    0.6634753574    0.0587325783
C       -1.2026497762   -0.0614163906    0.2030720804
N       -2.2949848597    0.3116744178    0.8759838541
C        1.5037945851   -1.2681951279   -0.8294077081
C        1.0343368274   -0.7194152087   -1.8954945003
H        1.9818185156    0.9330606787   -0.6845400152
H        0.0335011229    1.6393906503    0.5385973992
H       -1.2839178160   -1.0399770569   -0.2663312257
H        1.8645976944   -2.1208414083   -0.2738526672
H        0.6988213477   -0.7586357856   -2.9210450464
