13   
Iteration 0 Energy -340.97237675
C       -1.6865563099   -1.3154169303   -0.0582322438
N       -2.3828535635   -1.2831573171   -0.9978370148
C        0.2751521896    1.2717125601   -0.1059102973
C        0.0430151027    0.7803887289    1.1319412338
C       -0.2090868815   -0.5944015405    1.5601911019
N       -0.9657424924   -1.5090987081    1.0470761910
C        1.1004316007   -0.6276551398   -1.4805438518
C        0.5114169765    0.5476534618   -1.3582696769
H        0.3475790117    2.3557776735   -0.1903484506
H        0.0691772013    1.4879602327    1.9609024685
H        0.2487870443   -0.8779053460    2.5112036058
H        1.3771591204   -1.2892630081   -2.2910691340
H        0.2187672324    1.0832814896   -2.2700151225
13   
Iteration 1 Energy -340.97247475
C       -1.6431048209   -1.3576389544   -0.0748611348
N       -2.2934372962   -1.3668121231   -1.0473355068
C        0.2984142393    1.2789154541   -0.0961826471
C        0.0458979627    0.7900290735    1.1387451480
C       -0.2308355723   -0.5771751766    1.5768195538
N       -0.9715276593   -1.5070866672    1.0676142263
C        1.0328697960   -0.6400677500   -1.5035840408
C        0.5061426554    0.5616969475   -1.3574996045
H        0.4067806154    2.3606173894   -0.1718204928
H        0.0760473240    1.5001149237    1.9654009248
H        0.2040075248   -0.8452450464    2.5430035481
H        1.2731727276   -1.2993866957   -2.3274394781
H        0.2379445055    1.1247682953   -2.2602952110
13   
Iteration 2 Energy -340.97252004
C       -1.6306900744   -1.4290751664   -0.0562058182
N       -2.2506277441   -1.4991807444   -1.0460848795
C        0.3324447014    1.2761941544   -0.0959123854
C        0.0429721919    0.7864298332    1.1317655393
C       -0.2664476266   -0.5624302081    1.6025217112
N       -0.9885224787   -1.5156928142    1.1088400705
C        0.9740333502   -0.6366034112   -1.5617576485
C        0.5308808103    0.5930366022   -1.3762115709
H        0.4790719859    2.3547256209   -0.1478343947
H        0.0796435761    1.5025624765    1.9527310899
H        0.1268023246   -0.7898209539    2.5967798091
H        1.1842663630   -1.2778407040   -2.4075905501
H        0.3204945401    1.2063930232   -2.2617495848
13   
Iteration 3 Energy -340.97305983
C       -1.5205480521   -1.5067236649   -0.0895660552
N       -2.0705967095   -1.6498855307   -1.1129230650
C        0.3644250776    1.2784086273   -0.0857539848
C        0.0360354494    0.7944100399    1.1371846717
C       -0.2940221602   -0.5372344666    1.6348434782
N       -0.9518373911   -1.5230182105    1.1142228145
C        0.7926917106   -0.6534611982   -1.6023728399
C        0.5289810653    0.6211197423   -1.3802785767
H        0.5672670515    2.3485466799   -0.1168555166
H        0.0867125881    1.5133771316    1.9546891302
H        0.0108976305   -0.7080770874    2.6710850961
H        0.9347635895   -1.2879964268   -2.4667344534
H        0.4345384867    1.2896482873   -2.2463665484
13   
Iteration 4 Energy -340.97318734
C       -1.3617599633   -1.6126823932   -0.1423562373
N       -1.8336552655   -1.8532040527   -1.1881272475
C        0.3970985815    1.2895707058   -0.0713195147
C        0.0249518941    0.8251421103    1.1529617549
C       -0.3318998318   -0.4971439924    1.6393852693
N       -0.8795020298   -1.5349279953    1.0902846920
C        0.5127058432   -0.6511995509   -1.6265710963
C        0.5236761738    0.6458557288   -1.3686675597
H        0.6679880067    2.3447111924   -0.0882063318
H        0.1162006053    1.5339766339    1.9757670425
H       -0.1413120604   -0.6136386276    2.7099226465
H        0.5682618958   -1.2805523164   -2.5036787887
H        0.6345719647    1.3435409489   -2.2098582347
13   
Iteration 5 Energy -340.97404752
C       -1.4099751479   -1.5548404531   -0.1324802270
N       -1.9582286722   -1.7327843810   -1.1550617770
C        0.3561189043    1.2823388330   -0.0788316248
C        0.0180512592    0.8181216169    1.1572631533
C       -0.3055292612   -0.5135923207    1.6337781575
N       -0.8663921424   -1.5381050810    1.0735143627
C        0.6109458029   -0.6751111296   -1.6143309756
C        0.5192475925    0.6234709411   -1.3634997477
H        0.5740690558    2.3494731054   -0.1129454330
H        0.1064157977    1.5333640541    1.9746213694
H       -0.0677452541   -0.6639159364    2.6900102613
H        0.7270522228   -1.3008260635   -2.4878459581
H        0.5970562263    1.3162059502   -2.2110925240
13   
Iteration 6 Energy -340.97231063
C       -1.4402544750   -1.6319816637   -0.0257182444
N       -1.9582942663   -1.8529088256   -1.0576384752
C        0.3775317293    1.2418721910   -0.1052691619
C        0.0073490781    0.7577589129    1.1176129654
C       -0.3769560252   -0.5088978277    1.7049743085
N       -0.9530655595   -1.5555595740    1.1994459033
C        0.5961551039   -0.6224356282   -1.7635733646
C        0.5756191764    0.6609221082   -1.4200099517
H        0.6193697854    2.3044320163   -0.0899762382
H        0.1001889195    1.5058131092    1.9026313685
H       -0.1714223207   -0.5930696742    2.7754924703
H        0.7450554850   -1.1832470324   -2.6751544794
H        0.7771585592    1.3988104208   -2.2061355338
13   
Iteration 7 Energy -340.97379931
C       -1.4461737997   -1.5966442656   -0.0732409418
N       -1.9847472632   -1.7933542418   -1.0980826933
C        0.3735498681    1.2690025857   -0.0934871020
C        0.0161514195    0.7874369777    1.1318397191
C       -0.3401555009   -0.5147293545    1.6617832027
N       -0.9205399485   -1.5503835102    1.1396987031
C        0.6308504634   -0.6434045394   -1.6759379582
C        0.5534473119    0.6508252885   -1.3955868755
H        0.6020772533    2.3344230499   -0.0997397897
H        0.1084273387    1.5147470822    1.9368800640
H       -0.1112974168   -0.6338451651    2.7240881147
H        0.7584761742   -1.2466809287   -2.5637282235
H        0.6624048270    1.3637185888   -2.2225290132
13   
Iteration 8 Energy -340.97417962
C       -1.4225658279   -1.5775155188   -0.1001193110
N       -1.9631495482   -1.7568096400   -1.1268944343
C        0.3631711898    1.2769158802   -0.0888377164
C        0.0173293246    0.7968978414    1.1401519906
C       -0.3238631284   -0.5163605871    1.6506331981
N       -0.8955218379   -1.5490509717    1.1127345552
C        0.6149962936   -0.6562918040   -1.6425408733
C        0.5351724937    0.6424849891   -1.3839699566
H        0.5856365205    2.3434279702   -0.1051273189
H        0.1076489385    1.5204177879    1.9491338446
H       -0.0900650225   -0.6507838077    2.7097742830
H        0.7381740737   -1.2747978184   -2.5205292512
H        0.6354816631    1.3428336504   -2.2224890599
13   
Iteration 9 Energy -340.97450681
C       -1.4026139483   -1.5620491903   -0.1204801452
N       -1.9613595917   -1.7184130182   -1.1421166606
C        0.3337834679    1.2772850686   -0.0901901446
C        0.0157944807    0.8032309440    1.1514271565
C       -0.3093495430   -0.5171252366    1.6423438329
N       -0.8661812355   -1.5516201324    1.0871571661
C        0.5834763366   -0.6709882354   -1.6250055655
C        0.5221419361    0.6318962212   -1.3743917029
H        0.5316654868    2.3481764247   -0.1184759349
H        0.1137670426    1.5264014003    1.9599304352
H       -0.0631275874   -0.6687494551    2.6960927694
H        0.7283466824   -1.2952512057   -2.4956040380
H        0.6743874906    1.3232183927   -2.2119525694
13   
Iteration 10 Energy -340.97455907
C       -1.4128165439   -1.5635847675   -0.1204352826
N       -1.9869832520   -1.7073186975   -1.1353485437
C        0.3216570263    1.2909038340   -0.0950519795
C        0.0210833024    0.8004582506    1.1451753302
C       -0.2968856972   -0.5235356715    1.6282307970
N       -0.8609290345   -1.5596019963    1.0808664342
C        0.5760213960   -0.6719627960   -1.6069515447
C        0.5270954561    0.6345659799   -1.3704401909
H        0.5024196304    2.3648399445   -0.1243016297
H        0.1105846906    1.5212245103    1.9566174876
H       -0.0384695334   -0.6832587123    2.6775878153
H        0.7328908513   -1.3052194223   -2.4691937264
H        0.7066529293    1.3153160050   -2.2109942202
13   
Iteration 11 Energy -340.97457786
C       -1.3989234138   -1.5615009715   -0.1133033221
N       -1.9599449019   -1.7000800317   -1.1359388944
C        0.3124268766    1.2744749018   -0.0945741062
C        0.0179905930    0.7995104823    1.1529947504
C       -0.2968428307   -0.5224900307    1.6424990263
N       -0.8606901700   -1.5590207889    1.0955277012
C        0.5548619826   -0.6795039600   -1.6391306787
C        0.5351360793    0.6216824074   -1.3699592242
H        0.4850654727    2.3493648261   -0.1289465314
H        0.0912757474    1.5310135720    1.9568206883
H       -0.0458939805   -0.6782091679    2.6940675852
H        0.7165225954   -1.2932962918   -2.5145665071
H        0.7505894058    1.3103607939   -2.1953702377
13   
Iteration 12 Energy -340.97461442
C       -1.4107491448   -1.5590251790   -0.1116696421
N       -1.9787756414   -1.6943741069   -1.1306824628
C        0.3144616809    1.2751376183   -0.0970907479
C        0.0168971449    0.7966469420    1.1477291131
C       -0.2942463327   -0.5267016760    1.6387815499
N       -0.8630943790   -1.5610349039    1.0933599889
C        0.5697976606   -0.6741278660   -1.6235516817
C        0.5383952521    0.6306332397   -1.3767238274
H        0.4848270109    2.3503484690   -0.1282848498
H        0.0895090065    1.5261085411    1.9533306138
H       -0.0305432373   -0.6853904923    2.6870007274
H        0.7282735485   -1.3007571711   -2.4903611330
H        0.7374183330    1.3169248180   -2.2086879442
13   
Iteration 13 Energy -340.97462643
C       -1.4139717318   -1.5625213247   -0.1136303992
N       -1.9865890534   -1.7037062900   -1.1291984238
C        0.3204965940    1.2830881424   -0.0954407703
C        0.0130834449    0.7991602415    1.1442831661
C       -0.2947109984   -0.5261364871    1.6344559784
N       -0.8589071424   -1.5619120741    1.0880188945
C        0.5707608507   -0.6753556450   -1.6214668451
C        0.5397696331    0.6285909837   -1.3709337912
H        0.4974629334    2.3575229321   -0.1267903144
H        0.0845056004    1.5249320352    1.9532159779
H       -0.0302022491   -0.6824663829    2.6830519901
H        0.7238410479   -1.3007620008   -2.4900878754
H        0.7338918754    1.3144310462   -2.2041856688
13   
Iteration 14 Energy -340.97464009
C       -1.4129967624   -1.5605420832   -0.1121433446
N       -1.9857665959   -1.6976847719   -1.1281253624
C        0.3161135665    1.2792470595   -0.0963005392
C        0.0120221750    0.7986124294    1.1455815680
C       -0.2921892605   -0.5275064440    1.6351896365
N       -0.8578532137   -1.5630216457    1.0897266074
C        0.5666368832   -0.6768888693   -1.6243875010
C        0.5414553070    0.6268392521   -1.3719785163
H        0.4882898238    2.3542922500   -0.1288299988
H        0.0790034175    1.5268227159    1.9528296262
H       -0.0258242152   -0.6851671639    2.6830009815
H        0.7233912304   -1.3013156257   -2.4930993191
H        0.7463681957    1.3127455345   -2.2026403173
13   
Iteration 15 Energy -340.97464313
C       -1.4144736861   -1.5587507121   -0.1115432621
N       -1.9891277211   -1.6934802943   -1.1267292080
C        0.3138282270    1.2782079202   -0.0970583877
C        0.0094890435    0.7979725421    1.1448017899
C       -0.2904200668   -0.5291308011    1.6348550811
N       -0.8567835912   -1.5641431793    1.0893998716
C        0.5658952402   -0.6781811010   -1.6243423900
C        0.5431883039    0.6255752862   -1.3720941280
H        0.4828323746    2.3536978135   -0.1303312542
H        0.0736719147    1.5269369879    1.9515911536
H       -0.0194637120   -0.6881068452    2.6813084645
H        0.7242394601   -1.3031008286   -2.4924177875
H        0.7534273463    1.3110621283   -2.2017750283
13   
Iteration 16 Energy -340.97464459
C       -1.4181824415   -1.5584591693   -0.1111572775
N       -1.9973173185   -1.6920078885   -1.1238199575
C        0.3125128784    1.2777101051   -0.0977298668
C        0.0053295569    0.7982647413    1.1433999936
C       -0.2877718683   -0.5312548783    1.6320390555
N       -0.8541166955   -1.5664115834    1.0872841359
C        0.5645464203   -0.6797833913   -1.6237139751
C        0.5465985615    0.6238930183   -1.3716159268
H        0.4789774549    2.3535274730   -0.1319617482
H        0.0642004248    1.5276420149    1.9502975263
H       -0.0114960566   -0.6913288077    2.6769706865
H        0.7236735536   -1.3055350961   -2.4910372913
H        0.7638413252    1.3086592020   -2.2001432873
13   
Iteration 17 Energy -340.97464493
C       -1.4182708358   -1.5579978755   -0.1114761041
N       -1.9971024127   -1.6913567864   -1.1243453704
C        0.3120878394    1.2776941389   -0.0979790283
C        0.0048896707    0.7977584387    1.1429757649
C       -0.2882010903   -0.5315571628    1.6322363844
N       -0.8546979352   -1.5664067586    1.0871534229
C        0.5651168898   -0.6802644173   -1.6236460027
C        0.5461727115    0.6234422795   -1.3716654796
H        0.4783526139    2.3535571622   -0.1322492074
H        0.0643454223    1.5270858131    1.9498367701
H       -0.0113091708   -0.6919307158    2.6769640486
H        0.7244656454   -1.3061133319   -2.4908611790
H        0.7628780242    1.3081385031   -2.2003649024
