13   
Iteration 1 Energy -340.92501835
C       -2.1253079348    1.2818694559    0.4638327256
N       -0.9819064394    1.7733379770    0.2840190942
C        0.9280813135    0.3387762898   -0.4624247053
C       -0.0750153952    0.6445950397    0.6525584072
C       -1.0576434347   -0.4459990936    1.0178859812
N       -2.2869214291   -0.0614361034    0.9115432220
C        1.4898826200   -1.0404928606   -0.6949070857
C        0.6315505496   -0.6295082051   -1.5756805616
H        1.5486288671    1.2148648295   -0.6724376776
H        0.4750060716    0.9572519570    1.5544279493
H       -0.7997747461   -1.4500077382    1.3484514393
H        2.1760699088   -1.7949700846   -0.3386480426
H        0.0773500487   -0.7882814632   -2.4886207463
13   
Iteration 0 Energy -340.92501833
C       -2.1265544599    1.2776198042    0.4599814592
N       -0.9841610442    1.7711885089    0.2795396798
C        0.9294258266    0.3385998772   -0.4609930101
C       -0.0749657984    0.6456424129    0.6523964723
C       -1.0553098495   -0.4460803557    1.0204515925
N       -2.2853541165   -0.0646846639    0.9118134433
C        1.4867215645   -1.0421505701   -0.6955347161
C        0.6311395761   -0.6263166109   -1.5766870532
H        1.5532597706    1.2129642397   -0.6685075291
H        0.4737586811    0.9624785227    1.5535700569
H       -0.7953355727   -1.4484247593    1.3544771777
H        2.1697503004   -1.7997336763   -0.3397927050
H        0.0776251220   -0.7811027295   -2.4907148679
13   
Iteration 33 Energy -340.92501833
C       -2.1265544434    1.2776198560    0.4599815048
N       -0.9841610167    1.7711885408    0.2795397456
C        0.9294258080    0.3385998826   -0.4609930296
C       -0.0749657969    0.6456424041    0.6523964776
C       -1.0553098755   -0.4460803549    1.0204515554
N       -2.2853541337   -0.0646846283    0.9118134276
C        1.4867216009   -1.0421505488   -0.6955347050
C        0.6311395773   -0.6263166520   -1.5766870378
H        1.5532597128    1.2129642647   -0.6685075827
H        0.4737587023    0.9624784558    1.5535700708
H       -0.7953356230   -1.4484247794    1.3544770955
H        2.1697503751   -1.7997336162   -0.3397926848
H        0.0776251130   -0.7811028243   -2.4907148374
13   
Iteration 32 Energy -340.92501464
C       -2.1293907692    1.2677537718    0.4510957872
N       -0.9893916422    1.7664496620    0.2697547332
C        0.9324635358    0.3381845388   -0.4578011342
C       -0.0748309800    0.6481660651    0.6519584738
C       -1.0502235261   -0.4459734091    1.0262716623
N       -2.2820062375   -0.0720440287    0.9125374261
C        1.4797255694   -1.0459091599   -0.6970879986
C        0.6303847998   -0.6191193207   -1.5789559632
H        1.5635718950    1.2086191439   -0.6597531025
H        0.4710457991    0.9735830595    1.5516446256
H       -0.7854149869   -1.4442639799    1.3683525539
H        2.1555631948   -1.8104737828   -0.3425978286
H        0.0785033480   -0.7649725600   -2.4954192349
13   
Iteration 31 Energy -340.92500716
C       -2.1321785180    1.2580652999    0.4423893999
N       -0.9944003599    1.7611367640    0.2594974378
C        0.9354434342    0.3377377585   -0.4546833585
C       -0.0746352691    0.6504877175    0.6518134671
C       -1.0450539198   -0.4457953557    1.0320605964
N       -2.2786375398   -0.0792769775    0.9133264426
C        1.4728032946   -1.0496415999   -0.6987808879
C        0.6296857693   -0.6119311982   -1.5811972096
H        1.5738973272    1.2041578692   -0.6508866200
H        0.4680530924    0.9855480777    1.5501433901
H       -0.7756878958   -1.4404118609    1.3819193097
H        2.1414360786   -1.8212064955   -0.3457096723
H        0.0792745062   -0.7488699991   -2.4998922952
13   
Iteration 30 Energy -340.92499727
C       -2.1343838817    1.2488954569    0.4343395007
N       -0.9988284116    1.7570398351    0.2510608835
C        0.9381966382    0.3372066187   -0.4517469418
C       -0.0746635793    0.6525930223    0.6509184863
C       -1.0406902944   -0.4457818088    1.0375016536
N       -2.2754958718   -0.0857471632    0.9142756654
C        1.4663423315   -1.0526368457   -0.7001315285
C        0.6291045791   -0.6054107515   -1.5833111985
H        1.5828389443    1.2000876173   -0.6430609123
H        0.4655830653    0.9944365562    1.5475562983
H       -0.7669566886   -1.4361853470    1.3948184721
H        2.1283873008   -1.8301843600   -0.3479530958
H        0.0805658683   -0.7343128302   -2.5042672831
13   
Iteration 29 Energy -340.92498245
C       -2.1374135358    1.2394536844    0.4258754229
N       -1.0039322993    1.7508994601    0.2401599363
C        0.9410529313    0.3366849265   -0.4486562345
C       -0.0743000899    0.6549364552    0.6515493551
C       -1.0356095255   -0.4451602395    1.0432084635
N       -2.2723888655   -0.0928653502    0.9149345247
C        1.4599116587   -1.0566310122   -0.7022462759
C        0.6286246383   -0.5983114694   -1.5852788538
H        1.5930497130    1.1953913116   -0.6340357125
H        0.4625975968    1.0073493541    1.5468211005
H       -0.7577573570   -1.4322250322    1.4079858606
H        2.1149362805   -1.8411602417   -0.3522196353
H        0.0812288544   -0.7183618468   -2.5080979516
13   
Iteration 28 Energy -340.92495108
C       -2.1414869022    1.2221246314    0.4128300786
N       -1.0124458312    1.7427923166    0.2244024077
C        0.9461150646    0.3354530105   -0.4437892565
C       -0.0751825593    0.6584908932    0.6484259838
C       -1.0275790520   -0.4450243677    1.0536430097
N       -2.2665647756   -0.1044050800    0.9192968911
C        1.4473550208   -1.0620401460   -0.7047843880
C        0.6287647995   -0.5859867911   -1.5902326577
H        1.6101595821    1.1869865461   -0.6191314954
H        0.4568621348    1.0244493093    1.5405254232
H       -0.7412286042   -1.4242208242    1.4320881673
H        2.0889570511   -1.8578615409   -0.3555383577
H        0.0862740716   -0.6907579571   -2.5177358059
13   
Iteration 27 Energy -340.92490049
C       -2.1487255253    1.2025771466    0.3992944399
N       -1.0243687736    1.7300202690    0.2024562545
C        0.9520913589    0.3338182358   -0.4384131282
C       -0.0754880405    0.6628109341    0.6467457296
C       -1.0182150280   -0.4435421470    1.0662633699
N       -2.2606088204   -0.1175359910    0.9261906690
C        1.4336309777   -1.0698282777   -0.7091454283
C        0.6306549354   -0.5712679887   -1.5962927427
H        1.6310254085    1.1761576098   -0.6004550545
H        0.4501306048    1.0475826539    1.5345979927
H       -0.7228928451   -1.4138716871    1.4600762279
H        2.0591279006   -1.8794153338   -0.3624486159
H        0.0936378470   -0.6575054239   -2.5288697139
13   
Iteration 26 Energy -340.92484664
C       -2.1539017920    1.1862098083    0.3910991245
N       -1.0341170394    1.7199246153    0.1853360819
C        0.9569071689    0.3319379752   -0.4348686105
C       -0.0777843728    0.6655057067    0.6417755785
C       -1.0112098611   -0.4425157879    1.0773903414
N       -2.2561269998   -0.1269257450    0.9364505092
C        1.4218221524   -1.0758049329   -0.7128611077
C        0.6342060524   -0.5590198441   -1.6032241999
H        1.6486674779    1.1661800752   -0.5845866851
H        0.4419383948    1.0663265968    1.5267585251
H       -0.7073845086   -1.4053749870    1.4845119484
H        2.0327495391   -1.8967864506   -0.3667222165
H        0.1042337882   -0.6296570299   -2.5410592893
13   
Iteration 25 Energy -340.92479036
C       -2.1608026251    1.1739390459    0.3869587045
N       -1.0443035058    1.7103258638    0.1695997069
C        0.9611022816    0.3299369785   -0.4323122103
C       -0.0791626314    0.6673288277    0.6376290840
C       -1.0062410920   -0.4411381801    1.0871308673
N       -2.2531686923   -0.1331843920    0.9484090465
C        1.4128521378   -1.0809901416   -0.7164497411
C        0.6390597632   -0.5491457665   -1.6098808227
H        1.6628540485    1.1575423482   -0.5711660254
H        0.4362976101    1.0795969467    1.5186792252
H       -0.6961354669   -1.3966275294    1.5044969726
H        2.0114128457   -1.9109038047   -0.3704798346
H        0.1162353267   -0.6066801967   -2.5526149729
13   
Iteration 24 Energy -340.92473399
C       -2.1650893443    1.1647630245    0.3870140307
N       -1.0519514146    1.7026122480    0.1578603340
C        0.9635659012    0.3282845300   -0.4315819811
C       -0.0825712010    0.6684949224    0.6320481300
C       -1.0024441456   -0.4398165973    1.0947670162
N       -2.2515699562   -0.1370641116    0.9610803607
C        1.4057581415   -1.0857539613   -0.7196975877
C        0.6446348264   -0.5414495760   -1.6164210502
H        1.6747439127    1.1497381834   -0.5599200077
H        0.4282125423    1.0935717848    1.5118632693
H       -0.6862221346   -1.3913225676    1.5201656031
H        1.9938349228   -1.9233048697   -0.3735048397
H        0.1290979494   -0.5887530094   -2.5636732776
13   
Iteration 23 Energy -340.92466217
C       -2.1731932364    1.1568476304    0.3895287760
N       -1.0627246064    1.6955104133    0.1458281437
C        0.9670068549    0.3261122428   -0.4305160480
C       -0.0845051543    0.6690764406    0.6256857934
C       -0.9997006777   -0.4387068864    1.1024648529
N       -2.2496319273   -0.1394003239    0.9769383189
C        1.3985280217   -1.0893763131   -0.7219894032
C        0.6513918895   -0.5344057916   -1.6237926445
H        1.6855949908    1.1422343358   -0.5496582601
H        0.4244721421    1.1003011225    1.5011814167
H       -0.6776953493   -1.3834717190    1.5340957564
H        1.9755160007   -1.9332333176   -0.3733780903
H        0.1449410517   -0.5714878339   -2.5763886118
13   
Iteration 22 Energy -340.92453041
C       -2.1821876370    1.1486840865    0.4024114281
N       -1.0782174056    1.6865010332    0.1329391580
C        0.9691426327    0.3247014256   -0.4332720199
C       -0.0909996264    0.6717057678    0.6141350196
C       -0.9932251061   -0.4365374308    1.1101175868
N       -2.2474813430   -0.1422438360    1.0029152655
C        1.3876297062   -1.0969462455   -0.7246875806
C        0.6638063597   -0.5260257828   -1.6352925948
H        1.7022082680    1.1303444804   -0.5353769105
H        0.4114046238    1.1192903210    1.4872972861
H       -0.6616011675   -1.3774850589    1.5461948146
H        1.9469354762   -1.9508905388   -0.3711940209
H        0.1725852189   -0.5510982217   -2.5961874320
13   
Iteration 21 Energy -340.92436279
C       -2.1934345803    1.1434125070    0.4189111627
N       -1.0949132661    1.6824108594    0.1253162544
C        0.9708036182    0.3240841536   -0.4357873657
C       -0.0959426745    0.6747891237    0.6019450888
C       -0.9885025527   -0.4350263503    1.1137918626
N       -2.2436676319   -0.1442070456    1.0265730296
C        1.3758648661   -1.1017582165   -0.7236277437
C        0.6750781696   -0.5206052392   -1.6454333513
H        1.7150791079    1.1207818350   -0.5262953721
H        0.4068214393    1.1286048074    1.4721148393
H       -0.6455807127   -1.3721566678    1.5488497509
H        1.9183687607   -1.9629081597   -0.3617894078
H        0.2000254564   -0.5374216071   -2.6145687476
13   
Iteration 20 Energy -340.92421889
C       -2.1992255357    1.1414449726    0.4323368750
N       -1.1059910823    1.6808638058    0.1229987744
C        0.9714017419    0.3242740727   -0.4387629846
C       -0.0996542737    0.6781008694    0.5945387777
C       -0.9828851604   -0.4340525097    1.1145147041
N       -2.2408001766   -0.1462148861    1.0412938692
C        1.3683798957   -1.1059770797   -0.7226688967
C        0.6825402301   -0.5182886296   -1.6513294935
H        1.7238109155    1.1140166989   -0.5204822739
H        0.3993404062    1.1377985947    1.4622248125
H       -0.6341029226   -1.3696512230    1.5461882491
H        1.8997294100   -1.9716893341   -0.3554723276
H        0.2174565520   -0.5306253519   -2.6253800857
13   
Iteration 19 Energy -340.92409531
C       -2.2049878003    1.1401549997    0.4423124890
N       -1.1151168242    1.6813276906    0.1217398206
C        0.9716462030    0.3238433418   -0.4398088628
C       -0.1024333988    0.6810501802    0.5887613563
C       -0.9804288113   -0.4324955354    1.1139970494
N       -2.2386722090   -0.1478463319    1.0503097850
C        1.3630521895   -1.1089475730   -0.7214571248
C        0.6872622979   -0.5171349019   -1.6547356239
H        1.7296566481    1.1089213638   -0.5170250761
H        0.3981327141    1.1440817569    1.4565411871
H       -0.6247953260   -1.3686931366    1.5423178441
H        1.8872196582   -1.9777521797   -0.3507369600
H        0.2294646589   -0.5265096744   -2.6322158839
13   
Iteration 18 Energy -340.92399814
C       -2.2081051831    1.1397414214    0.4494493849
N       -1.1210212300    1.6819440070    0.1218371523
C        0.9724848424    0.3230625735   -0.4400281480
C       -0.1043749470    0.6838054388    0.5857966942
C       -0.9773967472   -0.4319371764    1.1136916070
N       -2.2369525756   -0.1492970532    1.0562705955
C        1.3604426515   -1.1116922684   -0.7209502151
C        0.6905888361   -0.5168856733   -1.6564627285
H        1.7334577489    1.1051724160   -0.5140652128
H        0.3934325189    1.1488020900    1.4506557111
H       -0.6190809179   -1.3664534692    1.5385741390
H        1.8800737877   -1.9823965420   -0.3490350124
H        0.2364512151   -0.5238657641   -2.6357339671
13   
Iteration 17 Energy -340.92390009
C       -2.2105388802    1.1393025670    0.4547193165
N       -1.1274050451    1.6853562019    0.1199456214
C        0.9726825618    0.3227045440   -0.4410087227
C       -0.1052473155    0.6842851027    0.5845031013
C       -0.9757386199   -0.4310618022    1.1127236181
N       -2.2358181283   -0.1505498081    1.0601077071
C        1.3587026059   -1.1142678423   -0.7211421758
C        0.6928581285   -0.5168627823   -1.6576773665
H        1.7377208405    1.1014640559   -0.5117525824
H        0.3900843664    1.1555846394    1.4505370931
H       -0.6135019947   -1.3671020229    1.5358427455
H        1.8753502227   -1.9869686768   -0.3489102111
H        0.2408512577   -0.5218841763   -2.6378881445
13   
Iteration 16 Energy -340.92378518
C       -2.2106083120    1.1380486010    0.4584557170
N       -1.1307075372    1.6878273784    0.1195840064
C        0.9726550270    0.3230742613   -0.4418852868
C       -0.1049689857    0.6826147381    0.5864642525
C       -0.9749108484   -0.4309308925    1.1122935627
N       -2.2349665618   -0.1521716639    1.0626206974
C        1.3585024251   -1.1156116081   -0.7211942916
C        0.6939818052   -0.5163463882   -1.6577401094
H        1.7420986767    1.0967799454   -0.5105123563
H        0.3835586948    1.1597357515    1.4468696450
H       -0.6109447085   -1.3635595333    1.5332978128
H        1.8738152817   -1.9890233597   -0.3499317494
H        0.2424950430   -0.5204372301   -2.6383219003
13   
Iteration 15 Energy -340.92303931
C       -2.2307322293    1.1377619143    0.4826406690
N       -1.1574059709    1.6877869760    0.1172095374
C        0.9829937828    0.3169149752   -0.4347970220
C       -0.1190641611    0.7060256144    0.5716925662
C       -0.9698766647   -0.4215851375    1.1053420630
N       -2.2330878871   -0.1578138910    1.0694763029
C        1.3609513052   -1.1285926128   -0.7214235602
C        0.7014406633   -0.5174042239   -1.6530108491
H        1.7589866741    1.0851502735   -0.5008069958
H        0.3847003126    1.1753211076    1.4389074343
H       -0.5913352483   -1.3598277791    1.5114516944
H        1.8658068570   -2.0107143670   -0.3546921873
H        0.2466225665   -0.5130228497   -2.6319896530
13   
Iteration 14 Energy -340.92117796
C       -2.2400399896    1.1406802285    0.5017974086
N       -1.1806618232    1.6971215383    0.1320627937
C        1.0005978206    0.3012289149   -0.4209693189
C       -0.1094112577    0.7004039614    0.5686656245
C       -0.9534109389   -0.4204715678    1.1015287845
N       -2.2274279116   -0.1622096076    1.0749927536
C        1.3708773853   -1.1471317179   -0.7301221162
C        0.7053295282   -0.5214858819   -1.6464242681
H        1.7787560243    1.0659497160   -0.4827747264
H        0.3320331332    1.2457343419    1.4080313724
H       -0.5826491060   -1.3646161331    1.4855100737
H        1.8687076796   -2.0365068770   -0.3732985490
H        0.2372994558   -0.4986969156   -2.6189998324
13   
Iteration 13 Energy -340.91793150
C       -2.2659892162    1.1438041593    0.4954727629
N       -1.2295724963    1.7334822254    0.0919076884
C        1.0081908988    0.2974064444   -0.4137601328
C       -0.1087711218    0.7197112291    0.5604816535
C       -0.9621387918   -0.4130122116    1.1011636068
N       -2.2243651681   -0.1539740002    1.0654888585
C        1.3787790696   -1.1418608590   -0.7267960651
C        0.7067235961   -0.5211320374   -1.6428203393
H        1.7735830739    1.0750936999   -0.4941141250
H        0.3995476509    1.1458869226    1.4417762101
H       -0.5926655377   -1.3561719960    1.5034020472
H        1.8913627823   -2.0246971502   -0.3733928119
H        0.2253152605   -0.5045364263   -2.6088093534
13   
Iteration 12 Energy -340.91390107
C       -2.2664118113    1.1490963191    0.4952014276
N       -1.2657296467    1.7530715290    0.0845500829
C        1.0211122353    0.2917031698   -0.4102152533
C       -0.0862732092    0.7061976677    0.5637625260
C       -0.9491158763   -0.4156081328    1.0997847033
N       -2.2250193925   -0.1512902528    1.0637131330
C        1.3831971250   -1.1477540628   -0.7311428042
C        0.7068732286   -0.5251590941   -1.6413738777
H        1.7720965229    1.0842009030   -0.4874507033
H        0.4046985295    1.1652852868    1.4432524324
H       -0.6039663667   -1.3739279262    1.4983755978
H        1.8913447364   -2.0331915885   -0.3755621179
H        0.2171939250   -0.5026238182   -2.6028951467
13   
Iteration 11 Energy -340.91136073
C       -2.2724380839    1.1471312668    0.4993652480
N       -1.2907266662    1.7721037218    0.0791865475
C        1.0277694556    0.2892674594   -0.4074649757
C       -0.0713590865    0.6929007239    0.5716796406
C       -0.9482652668   -0.4160628973    1.0975331858
N       -2.2218976589   -0.1531119807    1.0634652299
C        1.3862385605   -1.1518904851   -0.7340671437
C        0.7061123641   -0.5261511442   -1.6385794105
H        1.7844600539    1.0757689365   -0.4855645984
H        0.3996414424    1.1843763881    1.4424969144
H       -0.6035504211   -1.3768225150    1.4896559029
H        1.8927471873   -2.0389040103   -0.3803800072
H        0.2112681196   -0.4986054639   -2.5973265334
13   
Iteration 10 Energy -340.90969639
C       -2.2751826607    1.1451786057    0.5035086254
N       -1.3067356471    1.7845470921    0.0789730706
C        1.0324097484    0.2874692057   -0.4057109144
C       -0.0586092288    0.6796102681    0.5791995492
C       -0.9471097543   -0.4171096402    1.0954597688
N       -2.2194641938   -0.1553153106    1.0641112651
C        1.3881255399   -1.1559395370   -0.7370741186
C        0.7054733549   -0.5268729830   -1.6366372556
H        1.7957529218    1.0671219237   -0.4828818102
H        0.3876416966    1.2105142521    1.4380815003
H       -0.6020935493   -1.3799493753    1.4816570759
H        1.8922186798   -2.0449406799   -0.3850358716
H        0.2075730925   -0.4943138215   -2.5936508850
13   
Iteration 9 Energy -340.90819238
C       -2.2767047474    1.1427883830    0.5082186011
N       -1.3197136097    1.7952971277    0.0796398162
C        1.0364569721    0.2861955665   -0.4039421615
C       -0.0468338059    0.6668984998    0.5876363037
C       -0.9467009898   -0.4185917369    1.0943942072
N       -2.2171203706   -0.1575464021    1.0653844537
C        1.3900350181   -1.1591839777   -0.7394488263
C        0.7053043627   -0.5270877026   -1.6347413505
H        1.8063609187    1.0584414458   -0.4806780692
H        0.3738536439    1.2321107726    1.4286850554
H       -0.6018742509   -1.3798187794    1.4746051307
H        1.8921511836   -2.0493290360   -0.3893828690
H        0.2047856752   -0.4901741607   -2.5903702913
13   
Iteration 8 Energy -340.90687310
C       -2.2774805750    1.1409028566    0.5114624628
N       -1.3291239558    1.8039374508    0.0802022755
C        1.0388143190    0.2849469391   -0.4028665354
C       -0.0374728224    0.6552978852    0.5934062039
C       -0.9472246715   -0.4193171919    1.0925602415
N       -2.2155089337   -0.1588513746    1.0658500992
C        1.3909536681   -1.1619605420   -0.7420476710
C        0.7049375058   -0.5272301176   -1.6339064351
H        1.8152695711    1.0508563901   -0.4793457174
H        0.3627875157    1.2570936039    1.4267004382
H       -0.6003473028   -1.3849836522    1.4697259949
H        1.8917198351   -2.0540489984   -0.3933819776
H        0.2026758464   -0.4866432490   -2.5883593794
13   
Iteration 7 Energy -340.90567720
C       -2.2767968212    1.1394738716    0.5152492060
N       -1.3371272314    1.8111849514    0.0816510593
C        1.0412105649    0.2839882847   -0.4010971210
C       -0.0275012805    0.6463148750    0.5994546963
C       -0.9458779889   -0.4203847668    1.0926557532
N       -2.2133784844   -0.1595782346    1.0676835407
C        1.3926088601   -1.1641149278   -0.7435389300
C        0.7051238986   -0.5273880816   -1.6325430671
H        1.8215258542    1.0449855528   -0.4774489411
H        0.3477037711    1.2700956516    1.4161139136
H       -0.6003041926   -1.3837693900    1.4642232750
H        1.8919029116   -2.0568012659   -0.3963709410
H        0.2009101384   -0.4840065203   -2.5860324438
13   
Iteration 6 Energy -340.90474015
C       -2.2765919272    1.1383315021    0.5176101520
N       -1.3430092873    1.8166360869    0.0824603656
C        1.0428680704    0.2831543433   -0.4002061792
C       -0.0209109973    0.6387005516    0.6037099889
C       -0.9458701928   -0.4209711503    1.0918474306
N       -2.2123567486   -0.1602271546    1.0683191879
C        1.3934022099   -1.1658260034   -0.7451345978
C        0.7051211029   -0.5273870256   -1.6319782007
H        1.8268901292    1.0403801735   -0.4763245598
H        0.3388517086    1.2848999150    1.4119341126
H       -0.5998660179   -1.3863761382    1.4614175396
H        1.8917388502   -2.0596564680   -0.3989531587
H        0.1997330998   -0.4816586324   -2.5847020810
13   
Iteration 5 Energy -340.90404265
C       -2.2761168575    1.1375745243    0.5195369589
N       -1.3473045865    1.8204115742    0.0834199691
C        1.0441964873    0.2825857799   -0.3994110078
C       -0.0158365461    0.6332727830    0.6072139137
C       -0.9454456216   -0.4215406655    1.0915569268
N       -2.2115198822   -0.1607344266    1.0691042748
C        1.3941558790   -1.1670519082   -0.7461523742
C        0.7052301141   -0.5273826715   -1.6313970572
H        1.8306005045    1.0370766459   -0.4752283115
H        0.3312850742    1.2941267267    1.4066049293
H       -0.5998742248   -1.3869217322    1.4591273243
H        1.8916934446   -2.0614717806   -0.4007708713
H        0.1989362150   -0.4799448491   -2.5836046748
13   
Iteration 4 Energy -340.90354305
C       -2.2758444062    1.1370398057    0.5208567507
N       -1.3503911537    1.8231513668    0.0840299370
C        1.0451139210    0.2821680200   -0.3988662708
C       -0.0123046043    0.6293614946    0.6096592069
C       -0.9452438274   -0.4218876297    1.0912660488
N       -2.2109580550   -0.1610747619    1.0695771723
C        1.3946559825   -1.1679181336   -0.7469098999
C        0.7052910399   -0.5273647374   -1.6310195895
H        1.8332787810    1.0347201095   -0.4744857751
H        0.3261800837    1.3009813713    1.4031693956
H       -0.5998088896   -1.3876533695    1.4576514042
H        1.8916552442   -2.0628244804   -0.4020794553
H        0.1983758839   -0.4786990556   -2.5828489250
13   
Iteration 3 Energy -340.90319005
C       -2.2756883645    1.1366288646    0.5218065058
N       -1.3525022588    1.8250964393    0.0844838372
C        1.0457295054    0.2818815912   -0.3984921057
C       -0.0098503309    0.6265454373    0.6114078289
C       -0.9451813059   -0.4221131485    1.0910143652
N       -2.2105553275   -0.1613339263    1.0698955977
C        1.3949875239   -1.1685345431   -0.7474630818
C        0.7053258986   -0.5273322157   -1.6307610432
H        1.8352675971    1.0329535643   -0.4739757243
H        0.3225260372    1.3060763525    1.4007994337
H       -0.5996675447   -1.3882683611    1.4566456485
H        1.8916093847   -2.0638216078   -0.4030336567
H        0.1979991852   -0.4777784466   -2.5823276054
13   
Iteration 2 Energy -340.90284038
C       -2.2756231627    1.1360278211    0.5229289976
N       -1.3537130044    1.8267172849    0.0854188980
C        1.0461514068    0.2816651226   -0.3982734634
C       -0.0075810955    0.6233933058    0.6132702143
C       -0.9455036931   -0.4223296172    1.0905728136
N       -2.2101200802   -0.1618000935    1.0702349988
C        1.3951821843   -1.1692351295   -0.7481838799
C        0.7053328228   -0.5272017792   -1.6306033157
H        1.8378819432    1.0305774621   -0.4734640388
H        0.3179569288    1.3136166214    1.3985974703
H       -0.5989362013   -1.3896146942    1.4555814594
H        1.8911980437   -2.0652067280   -0.4041284473
H        0.1977739077   -0.4766095765   -2.5819517068
13   
Iteration 1 Energy -340.89993541
C       -2.2778567684    1.1400246794    0.5178558225
N       -1.4126138718    1.8636784670    0.0569952194
C        1.0539255820    0.2744956336   -0.3907848439
C        0.0097275082    0.6172550578    0.6144876759
C       -0.9409695104   -0.4190323868    1.0887601869
N       -2.2082128429   -0.1526380550    1.0654392136
C        1.4004069825   -1.1696525908   -0.7477044974
C        0.7041894506   -0.5300179113   -1.6271095903
H        1.8315906582    1.0371144332   -0.4754694605
H        0.3549569147    1.2688249085    1.4208819671
H       -0.6123787632   -1.3899449202    1.4592089402
H        1.9093714020   -2.0601288990   -0.4087119723
H        0.1878632585   -0.4799784165   -2.5738486612
13   
Iteration 0 Energy -340.89946862
C       -2.2624908301    1.1414120973    0.5301275585
N       -1.4290938737    1.8757293589    0.0523002863
C        1.0622646369    0.2683565980   -0.3868475241
C        0.0345520035    0.5815245067    0.6312318513
C       -0.9415427290   -0.4245586983    1.0976127386
N       -2.2104008094   -0.1438338337    1.0796572422
C        1.4134393589   -1.1713532889   -0.7578474251
C        0.7115635717   -0.5291863910   -1.6303707881
H        1.8381759443    1.0330156462   -0.4666201243
H        0.3155582464    1.3169735906    1.3868205332
H       -0.6330586041   -1.4072378740    1.4550230114
H        1.9148374030   -2.0662935150   -0.4191046677
H        0.1861956816   -0.4745481966   -2.5719826921
13   
Iteration 1 Energy -340.90010083
C       -2.2470292850    1.1349239341    0.5400441236
N       -1.4534162214    1.8948433107    0.0594752232
C        1.0700955281    0.2652711156   -0.3788808785
C        0.0628316698    0.5644129320    0.6509020713
C       -0.9263807969   -0.4276660421    1.0954520645
N       -2.2004966123   -0.1490618704    1.0769040081
C        1.4126947249   -1.1747263621   -0.7566079322
C        0.7087057512   -0.5288906242   -1.6243334641
H        1.8504557615    1.0250315197   -0.4600401988
H        0.2806222073    1.3688122646    1.3508643937
H       -0.6291019457   -1.4254845631    1.4193075848
H        1.8985565314   -2.0765972639   -0.4134180147
H        0.1724626870   -0.4708683509   -2.5596689807
13   
Iteration 2 Energy -340.90370205
C       -2.2309376558    1.1326732280    0.5422154794
N       -1.5014211271    1.9283773218    0.0462551852
C        1.0831158411    0.2591928236   -0.3719034424
C        0.0856722280    0.5349609846    0.6638926412
C       -0.9246789693   -0.4315351736    1.0931087448
N       -2.2030099931   -0.1397612936    1.0784434975
C        1.4188915389   -1.1772768649   -0.7610987414
C        0.7109739883   -0.5290695602   -1.6234074277
H        1.8560386314    1.0256248393   -0.4584688310
H        0.2719674153    1.3712350124    1.3391904835
H       -0.6460523456   -1.4294728563    1.4331615387
H        1.9123754198   -2.0785554411   -0.4271987110
H        0.1670650282   -0.4663930201   -2.5541904166
13   
Iteration 3 Energy -340.90944596
C       -2.2086328422    1.1309875095    0.5534855306
N       -1.5483528306    1.9632583160    0.0430189906
C        1.0927101242    0.2514526974   -0.3629416715
C        0.1141767061    0.5161114200    0.6858159743
C       -0.9131176563   -0.4315248474    1.1069127092
N       -2.1944222358   -0.1318421802    1.0901901834
C        1.4264298303   -1.1813915178   -0.7605101621
C        0.7102790447   -0.5325175622   -1.6154055336
H        1.8657727470    1.0180332511   -0.4502435178
H        0.2391913502    1.4049085178    1.2941876074
H       -0.6566604243   -1.4556582265    1.3821468619
H        1.9176049646   -2.0842465219   -0.4274986868
H        0.1550212223   -0.4675708557   -2.5391582856
13   
Iteration 4 Energy -340.91057016
C       -2.2056124416    1.1295361624    0.5547210080
N       -1.5549329202    1.9698057114    0.0420523158
C        1.0949855856    0.2495956184   -0.3610524517
C        0.1172064411    0.5102940795    0.6901218769
C       -0.9125683472   -0.4341703649    1.1038454307
N       -2.1942433277   -0.1309636578    1.0902565478
C        1.4272404998   -1.1825981858   -0.7620233775
C        0.7108189616   -0.5323710428   -1.6152979453
H        1.8676607732    1.0159959012   -0.4488073352
H        0.2343760436    1.4124578683    1.2894679527
H       -0.6575842030   -1.4564846699    1.3855954455
H        1.9182963476   -2.0860597982   -0.4306087181
H        0.1543565873   -0.4650376217   -2.5382707497
13   
Iteration 5 Energy -340.91217102
C       -2.2001835571    1.1289263716    0.5565931837
N       -1.5655775137    1.9787901232    0.0409552788
C        1.0979236606    0.2474527924   -0.3583274291
C        0.1224870959    0.5038127165    0.6962734340
C       -0.9110037288   -0.4362855017    1.1032347674