13   
Iteration 1 Energy -340.92501873
C       -2.4689954079    1.4605027254    0.5603555232
N       -1.3254503603    1.9514792763    0.3802319362
C        0.5838829606    0.5162522712   -0.3666245812
C       -0.4190036309    0.8222724495    0.7484630737
C       -1.4019050946   -0.2680471864    1.1138875653
N       -2.6310153379    0.1171470679    1.0078075654
C        1.1452124672   -0.8632437495   -0.5987836032
C        0.2868959542   -0.4522211229   -1.4795717099
H        1.2046438044    1.3921425285   -0.5768565326
H        0.1312615803    1.1346249420    1.6502903431
H       -1.1443819727   -1.2722143563    1.4442614788
H        1.8311886409   -1.6178480890   -0.2423872845
H       -0.2674991756   -0.6110930140   -2.3923773083
13   
Iteration 127 Energy -340.99824280
C       -2.4915280162   -0.7472028129    1.6904773956
N       -3.4310904964   -0.2012685005    2.1392001850
C        0.7008643829    0.9743889230   -0.6554619376
C       -0.3944485491    0.4059985714    0.1414180219
C       -0.5032990921   -0.9314253685    0.5202865471
N       -1.4847828281   -1.4783404969    1.2453462418
C        2.1156880094    0.3892291186   -0.6046925914
C        1.4621101307    0.1339045658   -1.6856013019
H        0.5980454255    2.0432906417   -0.8462169871
H       -1.1809393729    1.0889998479    0.4587880071
H        0.2669577611   -1.6366815609    0.2163926550
H        2.9826465366    0.2977274122    0.0314182210
H        1.3594521278   -0.3370750297   -2.6511149587
