13   
Iteration 1 Energy -340.92501876
C       -2.4696872716    1.4592330697    0.5596531272
N       -1.3262857762    1.9507015908    0.3798394958
C        0.5837019767    0.5161399036   -0.3666043037
C       -0.4193947320    0.8219586535    0.7483788088
C       -1.4020227715   -0.2686354798    1.1137063828
N       -2.6313007659    0.1159275104    1.0073636236
C        1.1455032832   -0.8631292468   -0.5990866841
C        0.2871712128   -0.4521445913   -1.4798601600
H        1.2042495303    1.3922284433   -0.5766172760
H        0.1306267348    1.1346155708    1.6502483509
H       -1.1441540829   -1.2726441244    1.4442718409
H        1.8316905720   -1.6176064708   -0.2428276410
H       -0.2670292881   -0.6109178494   -2.3928003447
13   
Iteration 7 Energy -340.97576514
C       -2.4869509049   -0.7565356702    1.6880060716
N       -3.4273862876   -0.2082102123    2.1310355581
C        0.7012211403    0.9733344108   -0.6549323815
C       -0.3934303538    0.4037814005    0.1437694797
C       -0.4994674288   -0.9326021182    0.5214995683
N       -1.4770903891   -1.4855146116    1.2451908686
C        2.1138617992    0.3903973054   -0.6060759042
C        1.4591991383    0.1358060070   -1.6852256524
H        0.5953376317    2.0434784685   -0.8431110303
H       -1.1820246315    1.0831015000    0.4637215651
H        0.2753454167   -1.6326525778    0.2147266084
H        2.9827337092    0.2972105239    0.0281474080
H        1.3570648067   -0.3354874878   -2.6513143978
