13   
Iteration 0 Energy -340.92393738
C       -2.3529462870    0.3319045554   -1.2810367057
N       -1.5421395555    0.4137860973   -0.4295983527
C        0.8886526096    0.2177889071   -0.0891278586
C       -0.5051281960    0.4918755206    0.5324039884
C       -0.7382102267   -0.4683465655    1.7067785736
N       -1.6811037770   -1.2792389870    1.8201574433
C        1.1090489314   -0.8412598275   -1.1244244365
C        1.1529623589    0.3813826683   -1.5547124136
H        1.6739609935    0.4423948729    0.6421777269
H       -0.5013712448    1.5099340955    0.9480072091
H        0.0352725067   -0.4106301080    2.4897211317
H        1.1655460205   -1.9027904080   -1.3120601963
H        1.2738244304    1.0882152300   -2.3615362284
13   
Iteration 1 Energy -340.92393739
C       -2.3528840351    0.3324959807   -1.2814880251
N       -1.5421351877    0.4139661728   -0.4299712825
C        0.8886045738    0.2175862307   -0.0889957669
C       -0.5052797979    0.4918334408    0.5322654117
C       -0.7387518297   -0.4683590968    1.7065551208
N       -1.6817953130   -1.2791787787    1.8192470498
C        1.1089758119   -0.8416478485   -1.1240942989
C        1.1531183380    0.3809348094   -1.5545723680
H        1.6738692939    0.4422568140    0.6423351830
H       -0.5014403642    1.5098879395    0.9478564149
H        0.0343524265   -0.4108044065    2.4898966300
H        1.1652732723   -1.9032020229   -1.3116303459
H        1.2740644982    1.0876040665   -2.3615186911
