13   
Iteration 0 Energy -340.95252734
C       -2.1760411510    1.3242500989   -0.8978831944
N       -1.3416157472    0.9686037285   -0.1441790790
C        0.9119036564   -0.0249635511   -0.1026147374
C       -0.3060579929    0.4903008647    0.7032771597
C       -0.8488791956   -0.6413322362    1.5922946246
N       -0.6191954075   -0.7162101298    2.8171258676
C        0.7763769657   -0.7163696075   -1.4265045961
C        1.2410750444    0.4934335244   -1.4704562510
H        1.7104340488   -0.3114660376    0.5896387215
H        0.0180112695    1.3078364310    1.3561897032
H       -1.4264880079   -1.4194857590    1.0700889860
H        0.4890335271   -1.6245497287   -1.9348315459
H        1.6194112755    1.3322689345   -2.0347818693
13   
Iteration 1 Energy -340.95255842
C       -2.1854683465    1.3308709732   -0.8850671378
N       -1.3478894135    0.9709072199   -0.1403771025
C        0.9103659225   -0.0252797768   -0.1055597082
C       -0.3080336823    0.4902262088    0.7020785460
C       -0.8512301092   -0.6417637595    1.5914665589
N       -0.6193543543   -0.7114634094    2.8163428310
C        0.7829536887   -0.7195200238   -1.4303214191
C        1.2464432542    0.4924325981   -1.4732518570
H        1.7071197650   -0.3100229053    0.5879790148
H        0.0172872792    1.3083769331    1.3531544817
H       -1.4333088344   -1.4214985248    1.0763385622
H        0.5009991985   -1.6280803791   -1.9392118531
H        1.6270761216    1.3299642497   -2.0364799537
13   
Iteration 2 Energy -340.95256355
C       -2.1834494854    1.3308766133   -0.8863250629
N       -1.3456339494    0.9690817745   -0.1437515361
C        0.9133009408   -0.0258425572   -0.1037898082
C       -0.3061470874    0.4898643463    0.7009682793
C       -0.8507322398   -0.6403502738    1.5917180914
N       -0.6254089718   -0.7124311319    2.8179060284
C        0.7813921605   -0.7192280302   -1.4287338807
C        1.2450333527    0.4934038645   -1.4721173138
H        1.7115584145   -0.3100850342    0.5880119185
H        0.0182020486    1.3095908643    1.3502479456
H       -1.4323484166   -1.4204021008    1.0768734201
H        0.4974171785   -1.6267909088   -1.9379364891
H        1.6231515325    1.3313189362   -2.0361931999
13   
Iteration 3 Energy -340.95256793
C       -2.1842636986    1.3325873609   -0.8853945681
N       -1.3454960138    0.9684090996   -0.1446237200
C        0.9125267416   -0.0259583951   -0.1038843639
C       -0.3064506051    0.4896112770    0.7008640907
C       -0.8515035940   -0.6397774005    1.5915802683
N       -0.6248818646   -0.7089412994    2.8177465841
C        0.7817923868   -0.7190776923   -1.4291306173
C        1.2456090947    0.4931779358   -1.4720287357
H        1.7104450105   -0.3103159338    0.5883450576
H        0.0175396475    1.3095731185    1.3501112913
H       -1.4325904527   -1.4211867360    1.0781219184
H        0.4982872444   -1.6265566075   -1.9390442181
H        1.6245164143    1.3309216692   -2.0360901876
13   
Iteration 4 Energy -340.95257089
C       -2.1877803448    1.3373128067   -0.8816679603
N       -1.3462366900    0.9678153970   -0.1462477817
C        0.9114391030   -0.0260036825   -0.1045367825
C       -0.3071583181    0.4899621486    0.7000156424
C       -0.8522933215   -0.6375668330    1.5921999624
N       -0.6268357227   -0.7051940679    2.8187898422
C        0.7835370127   -0.7196132683   -1.4298994804
C        1.2473274163    0.4922570539   -1.4724987760
H        1.7087301098   -0.3101514707    0.5886014095
H        0.0161904951    1.3109554139    1.3484208139
H       -1.4323482063   -1.4203780248    1.0797560134
H        0.5014023116   -1.6273058345   -1.9404661263
H        1.6276299732    1.3294023678   -2.0367326489
13   
Iteration 5 Energy -340.95257187
C       -2.1888694800    1.3401133784   -0.8806962523
N       -1.3459562969    0.9670964263   -0.1486858499
C        0.9119999357   -0.0265011847   -0.1039649561
C       -0.3073530635    0.4901297693    0.6988571723
C       -0.8530826990   -0.6364333523    1.5917314064
N       -0.6278955615   -0.6997961609    2.8185883989
C        0.7836398109   -0.7195872720   -1.4294679322
C        1.2479702006    0.4921672398   -1.4716831374
H        1.7091479984   -0.3111033575    0.5892163704
H        0.0152560789    1.3121047920    1.3464470302
H       -1.4321877717   -1.4209510662    1.0806947634
H        0.5009140527   -1.6268649969   -1.9403965879
H        1.6283686986    1.3293629696   -2.0357234776
13   
Iteration 6 Energy -340.95257241
C       -2.1893265111    1.3404786014   -0.8806111970
N       -1.3461300875    0.9673733954   -0.1490965240
C        0.9119583059   -0.0262204338   -0.1040460117
C       -0.3075219906    0.4908657594    0.6985460951
C       -0.8529728202   -0.6357294639    1.5919705009
N       -0.6287623507   -0.6997475264    2.8189188719
C        0.7836318687   -0.7196781127   -1.4293481941
C        1.2484326954    0.4919640066   -1.4717886307
H        1.7087340753   -0.3109634752    0.5894517514
H        0.0151815993    1.3130943179    1.3457355530
H       -1.4317077700   -1.4200463372    1.0802549023
H        0.5006369206   -1.6270740228   -1.9398376066
H        1.6292476312    1.3289666446   -2.0357683288
