13   
Iteration 12 Energy -340.92655276
C       -2.1795044783    1.2890789383   -0.9071746217
N       -1.3451813333    0.9332434377   -0.1534580191
C        0.9082687478   -0.0605375152   -0.1115492057
C       -0.3097490530    0.4548962458    0.6941674987
C       -0.8527673699   -0.6765553081    1.5832868184
N       -0.6236608558   -0.7516944027    2.8082187819
C        0.7728807743   -0.7523829847   -1.4352156562
C        1.2374577705    0.4574606275   -1.4795363053
H        1.7068227728   -0.3467587703    0.5807944866
H        0.0143126435    1.2724982919    1.3470030967
H       -1.4303031300   -1.4546376067    1.0609138721
H        0.4856752655   -1.6607326378   -1.9433093846
H        1.6157482465    1.2961216843   -2.0441413620
13   
Iteration 11 Energy -340.92655188
C       -2.1855817933    1.2817903634   -0.9051137367
N       -1.3465609701    0.9288703382   -0.1552809390
C        0.9075053910   -0.0630949426   -0.1123122782
C       -0.3094723404    0.4541263030    0.6926783712
C       -0.8520708764   -0.6745337920    1.5861511510
N       -0.6230984659   -0.7445636630    2.8112959447
C        0.7722390174   -0.7493404288   -1.4392020832
C        1.2417350837    0.4587465615   -1.4777173285
H        1.7038175816   -0.3552574169    0.5801209508
H        0.0139667461    1.2743023593    1.3426816505
H       -1.4300352197   -1.4541275037    1.0664619044
H        0.4831969270   -1.6549001791   -1.9511951678
H        1.6243589189    1.2979820008   -2.0385684391
13   
Iteration 10 Energy -340.92654949
C       -2.1844555965    1.2769526928   -0.9082617895
N       -1.3479277729    0.9256184216   -0.1549024143
C        0.9068989714   -0.0641694703   -0.1130619701
C       -0.3091376364    0.4531843025    0.6926308001
C       -0.8511708426   -0.6739489451    1.5888558160
N       -0.6245924017   -0.7395705566    2.8146106793
C        0.7707554242   -0.7468283051   -1.4417672736
C        1.2435691890    0.4600252007   -1.4768770575
H        1.7019425372   -0.3601573488    0.5792526215
H        0.0138358045    1.2750696376    1.3408302708
H       -1.4279159855   -1.4554151527    1.0705036663
H        0.4793914256   -1.6502426117   -1.9561961234
H        1.6288068837    1.2994821351   -2.0356172255
13   
Iteration 9 Energy -340.92654268
C       -2.1788942499    1.2696741403   -0.9179603670
N       -1.3503080027    0.9204940895   -0.1548208223
C        0.9052054198   -0.0671804696   -0.1139379775
C       -0.3099568903    0.4519532209    0.6928553470
C       -0.8491892277   -0.6725821874    1.5936537199
N       -0.6245227671   -0.7318172362    2.8201631716
C        0.7677015591   -0.7428106920   -1.4458062085
C        1.2452182942    0.4624215005   -1.4745552033
H        1.6980025694   -0.3692989272    0.5783496829
H        0.0134991019    1.2765732693    1.3374103702
H       -1.4231110179   -1.4583884502    1.0786419490
H        0.4722815821   -1.6421321730   -1.9650589942
H        1.6340736291    1.3030939149   -2.0289346681
13   
Iteration 8 Energy -340.92653377
C       -2.1741096307    1.2661901460   -0.9270093007
N       -1.3527641806    0.9177615747   -0.1556689052
C        0.9030545182   -0.0697669259   -0.1143384903
C       -0.3123525010    0.4512112716    0.6924892865
C       -0.8481030595   -0.6715545650    1.5973220717
N       -0.6206330698   -0.7266086860    2.8236974003
C        0.7652034737   -0.7399899552   -1.4484842067
C        1.2464497749    0.4640358404   -1.4722267754
H        1.6939883871   -0.3759867324    0.5783516582
H        0.0126774827    1.2772083491    1.3342394125
H       -1.4186473061   -1.4620920256    1.0860731637
H        0.4668225616   -1.6361205796   -1.9715745298
H        1.6384135495    1.3057122880   -2.0228707848
13   
Iteration 7 Energy -340.92652523
C       -2.1721412007    1.2630377400   -0.9349464479
N       -1.3555089433    0.9160845276   -0.1578750073
C        0.9012007462   -0.0716434733   -0.1133722252
C       -0.3155438931    0.4515758545    0.6914503790
C       -0.8482161957   -0.6694621109    1.5987630968
N       -0.6024069379   -0.7320065354    2.8213934284
C        0.7653655939   -0.7392500773   -1.4486947705
C        1.2470508706    0.4648376180   -1.4694113501
H        1.6907289560   -0.3790628604    0.5804443369
H        0.0105389454    1.2779013685    1.3318256522
H       -1.4283576231   -1.4554979414    1.0920919220
H        0.4670286784   -1.6340643441   -1.9740933586
H        1.6402610033    1.3075502341   -2.0175756558
13   
Iteration 6 Energy -340.92649821
C       -2.1769609479    1.2590738014   -0.9299776104
N       -1.3605529999    0.9143584836   -0.1516375669
C        0.8981548518   -0.0702015034   -0.1160735568
C       -0.3175259087    0.4531976069    0.6946111283
C       -0.8464541479   -0.6700360492    1.5974282723
N       -0.5962579514   -0.7308546834    2.8192987193
C        0.7677889530   -0.7388010672   -1.4520941690
C        1.2527639032    0.4633456879   -1.4720501267
H        1.6848402462   -0.3784899220    0.5798225922
H        0.0072131911    1.2807817668    1.3344529168
H       -1.4355815840   -1.4524358859    1.0936612845
H        0.4706579758   -1.6336979981   -1.9780715223
H        1.6519144188    1.3037597627   -2.0193703613
13   
Iteration 5 Energy -340.92641516
C       -2.1576752782    1.2524864338   -0.9371696635
N       -1.3456129746    0.9106494594   -0.1531493518
C        0.9098018326   -0.0702567907   -0.1115572086
C       -0.3058335995    0.4541591533    0.6990204640
C       -0.8360418250   -0.6723816126    1.5972456827
N       -0.6670957879   -0.7171751492    2.8337346864
C        0.7499950487   -0.7331958282   -1.4467409266
C        1.2434172309    0.4656044029   -1.4720283338
H        1.7033982145   -0.3820916965    0.5746790579
H        0.0151119994    1.2876870291    1.3347361734
H       -1.3794025743   -1.4782870729    1.0755644342
H        0.4344645034   -1.6233638835   -1.9701296415
H        1.6354732100    1.3061655552   -2.0242053727
13   
Iteration 4 Energy -340.92564970
C       -2.1704617666    1.3231501146   -0.9488180935
N       -1.3735215583    0.9464859590   -0.1650368697
C        0.8651524778   -0.0881451927   -0.1190548335
C       -0.3473706821    0.4515532715    0.6763360640
C       -0.8512400169   -0.6683552516    1.6107344629
N       -0.6244478529   -0.6685430161    2.8379996049
C        0.7583186083   -0.7427176511   -1.4622053730
C        1.2463264354    0.4592854434   -1.4601768387
H        1.6431060417   -0.4017361103    0.5852132865
H        0.0202407338    1.2578799933    1.3196363259
H       -1.2909274589   -1.5450345544    1.1181245858
H        0.4660570619   -1.6294022944   -2.0043139161
H        1.6587679768    1.3055792886   -1.9884384056
13   
Iteration 3 Energy -340.92472478
C       -2.1815806446    1.3548116578   -0.9361056006
N       -1.3824609132    0.9612125575   -0.1629418192
C        0.8528340856   -0.0911998447   -0.1277934536
C       -0.3559480252    0.4479955599    0.6682745458
C       -0.8496437361   -0.6686405535    1.6186320315
N       -0.6898305025   -0.6347894945    2.8558959738
C        0.7562259200   -0.7445142752   -1.4718277455
C        1.2492211862    0.4555846011   -1.4639019410
H        1.6279356941   -0.4072613248    0.5794956406
H        0.0305821143    1.2388048725    1.3168820288
H       -1.1943822635   -1.5830272578    1.1275933611
H        0.4659452855   -1.6296163197   -2.0174271420
H        1.6711017995    1.3006398214   -1.9867758796
13   
Iteration 2 Energy -340.92344645
C       -2.1586659477    1.3910925131   -0.8507285732
N       -1.3328565677    0.9717906529   -0.1207745127
C        0.8870064372   -0.0944255322   -0.1432220180
C       -0.2967300866    0.4339617771    0.6905179515
C       -0.8328750795   -0.6967907982    1.6071096046
N       -1.2025225190   -0.4850175561    2.7790114900
C        0.7187112537   -0.7395676825   -1.4862370983
C        1.2225470748    0.4557625000   -1.4946916007
H        1.6893079647   -0.4265730187    0.5263477666
H        0.0823404934    1.2215254903    1.3498299720
H       -0.7883278362   -1.7155347973    1.1992029082
H        0.3904437344   -1.6174603485   -2.0219723149
H        1.6216210784    1.3012368001   -2.0343935752
13   
Iteration 1 Energy -340.92249973
C       -2.1538209162    1.3895381030   -0.8014912998
N       -1.3091228003    0.9712099035   -0.0930869756
C        0.9075503263   -0.0860216654   -0.1496341325
C       -0.2617753744    0.4374483487    0.7083418901
C       -0.8199243462   -0.6948227755    1.6115438463
N       -1.4473652577   -0.4932929166    2.6701097691
C        0.7065038612   -0.7410065266   -1.4857426251
C        1.2126455472    0.4521745568   -1.5146629036
H        1.7240779026   -0.4179376755    0.5025366977
H        0.1030842773    1.2336221583    1.3673675369
H       -0.6246893497   -1.7213701901    1.2636008764
H        0.3634658175   -1.6217674877   -2.0075206524
H        1.5993703122    1.2922261672   -2.0713620275
13   
Iteration 0 Energy -340.92222505
C       -2.1492207725    1.3810055560   -0.7927684696
N       -1.3003062196    0.9661705252   -0.0873498076
C        0.9170192343   -0.0843406065   -0.1483228508
C       -0.2505550429    0.4372237245    0.7134225387
C       -0.8153929413   -0.6948277574    1.6116027083
N       -1.4969362207   -0.4895909279    2.6354328295
C        0.7011077730   -0.7391735570   -1.4825320074
C        1.2094535006    0.4529668539   -1.5167417570
H        1.7384771749   -0.4168632863    0.4976327845
H        0.1068746768    1.2371838727    1.3726099721
H       -0.6020071203   -1.7230945489    1.2757098794
H        0.3504881695   -1.6190684612   -2.0008378627
H        1.5909977882    1.2924086127   -2.0778579575
13   
Iteration 25 Energy -340.92222447
C       -2.1492171900    1.3810317057   -0.7927723268
N       -1.3003060809    0.9661889066   -0.0873495276
C        0.9170071606   -0.0843379022   -0.1483261147
C       -0.2505542113    0.4372279199    0.7134233420
C       -0.8154017782   -0.6947970386    1.6116122485
N       -1.4969772022   -0.4895683840    2.6354144819
C        0.7010940916   -0.7391716811   -1.4825322882
C        1.2094515558    0.4529634064   -1.5167422217
H        1.7384873514   -0.4168807202    0.4976444480
H        0.1068910853    1.2372393676    1.3726268790
H       -0.6019377947   -1.7232242660    1.2757011998
H        0.3504629415   -1.6190675736   -2.0008423423
H        1.5910000709    1.2923962593   -2.0778577779
13   
Iteration 24 Energy -340.92218006
C       -2.1487962661    1.3815449724   -0.7929238633
N       -1.3005222655    0.9662308055   -0.0871983091
C        0.9167237456   -0.0848953581   -0.1486500360
C       -0.2511295233    0.4373864029    0.7129301855
C       -0.8145224511   -0.6952795350    1.6123319459
N       -1.5036370801   -0.4902966592    2.6311868082
C        0.7005165204   -0.7388921519   -1.4832036994
C        1.2094877516    0.4530150792   -1.5168706495
H        1.7374471429   -0.4178395499    0.4973693371
H        0.1069746730    1.2362671830    1.3719989390
H       -0.5936368874   -1.7214696658    1.2822248974
H        0.3494283976   -1.6183804744   -2.0017201041
H        1.5916662423    1.2926089514   -2.0774754516
13   
Iteration 23 Energy -340.92214563
C       -2.1484531774    1.3823991871   -0.7930928480
N       -1.3006756054    0.9666164526   -0.0870943833
C        0.9162714834   -0.0852092666   -0.1489312039
C       -0.2514054051    0.4374597727    0.7127101945
C       -0.8141504146   -0.6950283081    1.6129351375
N       -1.5088152797   -0.4904405931    2.6280362215
C        0.6998867228   -0.7386709985   -1.4836531531
C        1.2094972471    0.4529643742   -1.5169250184
H        1.7369253810   -0.4188485308    0.4973664309
H        0.1072256534    1.2368135759    1.3717830058
H       -0.5867367981   -1.7226614139    1.2864822931
H        0.3482757885   -1.6178803971   -2.0024339970
H        1.5921544041    1.2924861457   -2.0771826796
13   
Iteration 22 Energy -340.92211995
C       -2.1482564272    1.3827345148   -0.7932480187
N       -1.3008287479    0.9666658980   -0.0870528938
C        0.9160562994   -0.0854875504   -0.1491169917
C       -0.2517171336    0.4375448833    0.7124666362
C       -0.8137143954   -0.6951936561    1.6133637750
N       -1.5126592130   -0.4908455351    2.6255688384
C        0.6995448759   -0.7385184511   -1.4840329794
C        1.2095230080    0.4529847643   -1.5169831284
H        1.7363574549   -0.4194065099    0.4972010855
H        0.1073975185    1.2363081401    1.3715355492
H       -0.5819010527   -1.7218737996    1.2902273820
H        0.3476711440   -1.6174921714   -2.0029626429
H        1.5925266691    1.2925794730   -2.0769666113
13   
Iteration 21 Energy -340.92210182
C       -2.1481032356    1.3830716322   -0.7933453252
N       -1.3009227203    0.9667841021   -0.0870081926
C        0.9158593239   -0.0856696674   -0.1492529620
C       -0.2518674550    0.4375648767    0.7123508361
C       -0.8134386574   -0.6952108056    1.6136905178
N       -1.5153714769   -0.4910674350    2.6238627066
C        0.6992734236   -0.7384095202   -1.4842827901
C        1.2095453270    0.4529753785   -1.5170046630
H        1.7360117119   -0.4198832919    0.4971256435
H        0.1074818733    1.2363260288    1.3713268749
H       -0.5784138047   -1.7218519726    1.2926917133
H        0.3471613370   -1.6172106454   -2.0033486737
H        1.5927843534    1.2925813198   -2.0768056856
13   
Iteration 20 Energy -340.92208902
C       -2.1480087257    1.3833723555   -0.7934351677
N       -1.3010014138    0.9669000993   -0.0869825005
C        0.9156597569   -0.0857729083   -0.1493506253
C       -0.2518939056    0.4374946345    0.7123594438
C       -0.8133111168   -0.6951681969    1.6138904231
N       -1.5173454223   -0.4912166157    2.6226404074
C        0.6990669409   -0.7383355868   -1.4844525968
C        1.2095732595    0.4529508868   -1.5169818997
H        1.7357671451   -0.4202726320    0.4970296918
H        0.1075250922    1.2364978896    1.3711468098
H       -0.5757840954   -1.7220016138    1.2944727038
H        0.3467826009   -1.6169925850   -2.0036640608
H        1.5929698841    1.2925442728   -2.0766726290
13   
Iteration 19 Energy -340.92207986
C       -2.1479291027    1.3835337445   -0.7934825149
N       -1.3010414734    0.9669557310   -0.0869589710
C        0.9155723862   -0.0858716006   -0.1494155833
C       -0.2519850745    0.4375279667    0.7122828556
C       -0.8131480469   -0.6951849179    1.6140779534
N       -1.5187123733   -0.4913350359    2.6217629960
C        0.6989335030   -0.7382808163   -1.4845868506
C        1.2095837990    0.4529495866   -1.5170031951
H        1.7356051444   -0.4205026523    0.4969930343
H        0.1075687549    1.2364963859    1.3710425057
H       -0.5740845334   -1.7219916943    1.2957390442
H        0.3465316229   -1.6168536384   -2.0038599202
H        1.5931053938    1.2925569409   -2.0765913541
13   
Iteration 18 Energy -340.92207339
C       -2.1478708059    1.3836573212   -0.7935185401
N       -1.3010664178    0.9670045083   -0.0869438306
C        0.9155115859   -0.0859404549   -0.1494618169
C       -0.2520642770    0.4375736900    0.7122124937
C       -0.8130347955   -0.6951735382    1.6142240546
N       -1.5196751547   -0.4913970961    2.6211427637
C        0.6988322416   -0.7382413964   -1.4846820544
C        1.2095869638    0.4529495274   -1.5170262849
H        1.7355082451   -0.4206645927    0.4969850705
H        0.1076235090    1.2365129186    1.3709992942
H       -0.5728940644   -1.7220813771    1.2966002422
H        0.3463422426   -1.6167625133   -2.0039926770
H        1.5932007274    1.2925630032   -2.0765387149
13   
Iteration 17 Energy -340.92206887
C       -2.1477889463    1.3837523149   -0.7935101736
N       -1.3010560745    0.9670413725   -0.0869050490
C        0.9154875209   -0.0860206413   -0.1494877240
C       -0.2521184034    0.4375863668    0.7121471787
C       -0.8129594518   -0.6951937539    1.6142909715
N       -1.5203304790   -0.4914891801    2.6206964395
C        0.6987650602   -0.7382022986   -1.4847660037
C        1.2096035014    0.4529526579   -1.5170511605
H        1.7354614213   -0.4207905518    0.4969603448
H        0.1075450343    1.2366028015    1.3708545094
H       -0.5721125033   -1.7221426567    1.2973386354
H        0.3462039204   -1.6166855093   -2.0040910419
H        1.5932993998    1.2925890781   -2.0764769266
13   
Iteration 16 Energy -340.92206558
C       -2.1477395734    1.3838512176   -0.7935197071
N       -1.3010501750    0.9670959637   -0.0868880693
C        0.9154563815   -0.0860616727   -0.1495085956
C       -0.2521698328    0.4376320247    0.7120922913
C       -0.8129177631   -0.6951430902    1.6143700491
N       -1.5207943601   -0.4914875396    2.6203925920
C        0.6986985989   -0.7381781192   -1.4848179729
C        1.2096040924    0.4529504871   -1.5170754410
H        1.7354589386   -0.4208858108    0.4969798486
H        0.1075642676    1.2367241874    1.3708374968
H       -0.5715471895   -1.7224389674    1.2977372872
H        0.3460774491   -1.6166444398   -2.0041516088
H        1.5933591657    1.2925857594   -2.0764481704
13   
Iteration 15 Energy -340.92206292
C       -2.1476897991    1.3839805669   -0.7935242304
N       -1.3010332742    0.9671855765   -0.0868746128
C        0.9154182116   -0.0860817797   -0.1495253049
C       -0.2522110422    0.4376884948    0.7120420876
C       -0.8129309830   -0.6950160297    1.6144292515
N       -1.5210750710   -0.4914104147    2.6202205256
C        0.6986250783   -0.7381572584   -1.4848480630
C        1.2095973551    0.4529425468   -1.5171028362
H        1.7355251310   -0.4209772848    0.4970441705
H        0.1076072505    1.2369887416    1.3708812819
H       -0.5711699873   -1.7230630542    1.2978728843
H        0.3459378436   -1.6166314193   -2.0041839441
H        1.5933992867    1.2925513143   -2.0764312100
13   
Iteration 14 Energy -340.92198382
C       -2.1474775066    1.3853296887   -0.7943370077
N       -1.3017765440    0.9675611501   -0.0869566127
C        0.9142145551   -0.0866058786   -0.1501581348
C       -0.2526416059    0.4375978628    0.7120303556
C       -0.8116944202   -0.6950632125    1.6160667880
N       -1.5334878847   -0.4924777520    2.6123494120
C        0.6974733987   -0.7378151184   -1.4859183089
C        1.2096298881    0.4528410002   -1.5169684149
H        1.7335793012   -0.4230062635    0.4964242896
H        0.1087132573    1.2362509538    1.3705363036
H       -0.5550192100   -1.7216062249    1.3088692235
H        0.3440981311   -1.6154189039   -2.0061967368
H        1.5943886401    1.2924126983   -2.0757411566
13   
Iteration 13 Energy -340.92192716
C       -2.1466602122    1.3867056430   -0.7947586204
N       -1.3021478170    0.9679074324   -0.0867411306
C        0.9132981318   -0.0874357721   -0.1507154401
C       -0.2532362449    0.4367766112    0.7115029496
C       -0.8123180524   -0.6947365528    1.6157663003
N       -1.5429890262   -0.4942159675    2.6061037897
C        0.6964863474   -0.7372276972   -1.4868695438
C        1.2099142558    0.4528958876   -1.5168989932
H        1.7320860920   -0.4249732616    0.4957817591
H        0.1082820142    1.2358781755    1.3690603747
H       -0.5406318251   -1.7199578915    1.3202307621
H        0.3423109646   -1.6142030441   -2.0075778738
H        1.5956053720    1.2925864371   -2.0748843336
13   
Iteration 12 Energy -340.92188729
C       -2.1463036475    1.3875186992   -0.7950653278
N       -1.3023748795    0.9681991192   -0.0866911721
C        0.9127708514   -0.0879214961   -0.1510573442
C       -0.2536149555    0.4366981389    0.7112228319
C       -0.8118568015   -0.6946741786    1.6164904220
N       -1.5495347009   -0.4951524373    2.6018005508
C        0.6958817348   -0.7369495517   -1.4875317024
C        1.2100282754    0.4528821311   -1.5169324086
H        1.7312496414   -0.4261855286    0.4955249358
H        0.1083791634    1.2359989360    1.3684028158
H       -0.5320529770   -1.7195693634    1.3268728864
H        0.3411495916   -1.6134834024   -2.0086107638
H        1.5962787039    1.2926389336   -2.0744257238
13   
Iteration 11 Energy -340.92185975
C       -2.1462097930    1.3879879206   -0.7953061149
N       -1.3025744342    0.9683757292   -0.0867041272
C        0.9124056300   -0.0881691798   -0.1512642774
C       -0.2537812959    0.4368467359    0.7111896982
C       -0.8110208723   -0.6947659980    1.6174618096
N       -1.5540444452   -0.4955614519    2.5987688853
C        0.6954950933   -0.7368470272   -1.4879777300
C        1.2100351345    0.4528325819   -1.5169387492
H        1.7306933708   -0.4269361464    0.4953835346
H        0.1087056607    1.2361799611    1.3681843444
H       -0.5268194344   -1.7194934844    1.3307683968
H        0.3404724594   -1.6130593469   -2.0094178145
H        1.5966429263    1.2926097058   -2.0741478558
13   
Iteration 10 Energy -340.92183971
C       -2.1460357219    1.3884124085   -0.7955454777
N       -1.3027615850    0.9684813967   -0.0867136436
C        0.9120744980   -0.0884016509   -0.1514761696
C       -0.2540379374    0.4366885847    0.7109876474
C       -0.8111050165   -0.6945962223    1.6175909386
N       -1.5575196823   -0.4961203032    2.5964727971
C        0.6951589108   -0.7366696927   -1.4883023941
C        1.2100990543    0.4528542542   -1.5169259480
H        1.7301557929   -0.4275851475    0.4952316779
H        0.1088878230    1.2358674320    1.3679605308
H       -0.5217807361   -1.7189148728    1.3345517256
H        0.3398694482   -1.6126633008   -2.0099202532
H        1.5969951518    1.2926471142   -2.0739114312
13   
Iteration 9 Energy -340.92182554
C       -2.1459197756    1.3887203494   -0.7957486886
N       -1.3029198020    0.9685466273   -0.0867380121
C        0.9118168777   -0.0885525341   -0.1516402866
C       -0.2542451540    0.4365425912    0.7108212653
C       -0.8112896714   -0.6944118130    1.6175930117
N       -1.5600022931   -0.4965258672    2.5948426253
C        0.6949095403   -0.7365326313   -1.4885210949
C        1.2101440943    0.4528794015   -1.5169082728
H        1.7297437723   -0.4280507228    0.4951278349
H        0.1090869422    1.2355166875    1.3678702420
H       -0.5180000213   -1.7184251245    1.3373109875
H        0.3394348123   -1.6123781214   -2.0102569954
H        1.5972406783    1.2926711575   -2.0737526163
13   
Iteration 8 Energy -340.92181536
C       -2.1458683973    1.3889102387   -0.7959397189
N       -1.3030783930    0.9685567152   -0.0867880731
C        0.9116121523   -0.0886312360   -0.1517718411
C       -0.2544174174    0.4364020189    0.7106907633
C       -0.8115381554   -0.6942412278    1.6174997290
N       -1.5617715060   -0.4968277983    2.5936984481
C        0.6947338644   -0.7364293649   -1.4886556812
C        1.2101709439    0.4529103351   -1.5168788827
H        1.7293868612   -0.4283621553    0.4950468892
H        0.1093436344    1.2350139081    1.3679088371
H       -0.5151179775   -1.7178148167    1.3393193244
H        0.3391512702   -1.6121758227   -2.0104705414
H        1.5973931203    1.2926892056   -2.0736592528
13   
Iteration 7 Energy -340.92180800
C       -2.1458847842    1.3889986450   -0.7961254925
N       -1.3032362158    0.9685233076   -0.0868618083
C        0.9114549913   -0.0886468120   -0.1518726583
C       -0.2545643854    0.4363093522    0.7105953930
C       -0.8117626423   -0.6941001897    1.6174035101
N       -1.5629992712   -0.4970192535    2.5929187472
C        0.6946174678   -0.7363637367   -1.4887256694
C        1.2101752037    0.4529426834   -1.5168448937
H        1.7290801507   -0.4285408597    0.4949927950
H        0.1096756801    1.2343849291    1.3680745510
H       -0.5130133493   -1.7171420137    1.3406658679
H        0.3389926233   -1.6120470776   -2.0105946540
H        1.5974645313    1.2927010256   -2.0736256881
13   
Iteration 6 Energy -340.92180017
C       -2.1460520940    1.3891104447   -0.7965084995
N       -1.3035206400    0.9684887244   -0.0870728101
C        0.9111992110   -0.0885100616   -0.1520113746
C       -0.2548532490    0.4362966571    0.7104275322
C       -0.8123482259   -0.6936069228    1.6172089154
N       -1.5641523001   -0.4969405769    2.5923137116
C        0.6944402802   -0.7363072832   -1.4886942817
C        1.2101095901    0.4529975856   -1.5167967817
H        1.7287273664   -0.4286513854    0.4950785923
H        0.1107112100    1.2332661842    1.3689142855
H       -0.5104785172   -1.7167751643    1.3414480362
H        0.3388099985   -1.6119970412   -2.0105856309
H        1.5974073700    1.2926288393   -2.0737216948
13   
Iteration 5 Energy -340.92160467
C       -2.1440422102    1.3931533436   -0.7978527612
N       -1.3047671952    0.9697758632   -0.0863347891
C        0.9083317413   -0.0914728204   -0.1535776719
C       -0.2560388217    0.4359617694    0.7098326081
C       -0.8065883237   -0.6947494069    1.6229545519
N       -1.5991039145   -0.5024237029    2.5660823872
C        0.6913614457   -0.7351066950   -1.4926864147
C        1.2106499036    0.4526459057   -1.5166500932
H        1.7243086697   -0.4354883494    0.4933983091
H        0.1091722747    1.2367145610    1.3638808276
H       -0.4680144538   -1.7137968782    1.3786523427
H        0.3332992177   -1.6080895931   -2.0174221881
H        1.6014316663    1.2928760033   -2.0702771084
13   
Iteration 4 Energy -340.92144185
C       -2.1429403602    1.3965749472   -0.8012229552
N       -1.3072179376    0.9705059381   -0.0870758935
C        0.9044667719   -0.0941567586   -0.1557973233
C       -0.2591748002    0.4344954660    0.7077427607
C       -0.8067204482   -0.6933375874    1.6253508017
N       -1.6354858831   -0.5111469235    2.5388816914
C        0.6883924554   -0.7333245966   -1.4963761051
C        1.2113808241    0.4529844755   -1.5161893766
H        1.7181325194   -0.4425023131    0.4920670652
H        0.1122671829    1.2334168610    1.3611275601
H       -0.4160971481   -1.7032479210    1.4221704670
H        0.3280529975   -1.6039007493   -2.0234988871
H        1.6049438262    1.2936391617   -2.0671798053
13   
Iteration 3 Energy -340.92132292
C       -2.1417408755    1.3989704475   -0.8031335574
N       -1.3091650805    0.9702271258   -0.0869439239
C        0.9016730011   -0.0971368282   -0.1576674070
C       -0.2607769068    0.4333643622    0.7067332078
C       -0.8028720308   -0.6924212192    1.6306642354
N       -1.6672059977   -0.5197253987    2.5124973383
C        0.6860710269   -0.7321041106   -1.5005395651
C        1.2120732539    0.4529380661   -1.5159127685
H        1.7137128138   -0.4491507132    0.4903197760
H        0.1111623971    1.2346216878    1.3572475076
H       -0.3760896903   -1.6936277125    1.4610032415
H        0.3242244425   -1.6001962384   -2.0307004526
H        1.6089336463    1.2942405316   -2.0635676323
13   
Iteration 2 Energy -340.92124660
C       -2.1413132073    1.4009196650   -0.8068354555
N       -1.3115084076    0.9713529895   -0.0878934704
C        0.8978680480   -0.1001544222   -0.1597528870
C       -0.2641500434    0.4315352363    0.7043885466
C       -0.8029359584   -0.6915506134    1.6328210092
N       -1.6972262127   -0.5300511337    2.4864834583
C        0.6843212684   -0.7306491706   -1.5042916356
C        1.2128984895    0.4533773836   -1.5152339417
H        1.7076568967   -0.4557049166    0.4893303488
H        0.1134898807    1.2313341139    1.3539312354
H       -0.3323966025   -1.6794277875    1.5039456862
H        0.3212516286   -1.5965812059   -2.0370956249
H        1.6120442199    1.2955998617   -2.0597972694
13   
Iteration 1 Energy -340.92120803
C       -2.1408590421    1.4006074300   -0.8081874394
N       -1.3127576838    0.9695138137   -0.0882337820
C        0.8963946419   -0.1023975968   -0.1610670127
C       -0.2649277705    0.4304237871    0.7037191268
C       -0.8006046315   -0.6900218021    1.6367423452
N       -1.7226203552   -0.5394251593    2.4624884786
C        0.6824980541   -0.7292894691   -1.5073358885
C        1.2136376852    0.4536141846   -1.5149050920
H        1.7050702816   -0.4609724428    0.4877757150
H        0.1130058528    1.2321077631    1.3510821247
H       -0.3018983003   -1.6673501517    1.5373223257
H        0.3178850593   -1.5931397955   -2.0424405615
H        1.6151762086    1.2963294389   -2.0569603399
13   
Iteration 0 Energy -340.92119791
C       -2.1407518909    1.4007640657   -0.8117219308
N       -1.3153428878    0.9687360786   -0.0892131243
C        0.8932089972   -0.1056064034   -0.1629462944
C       -0.2677364355    0.4284617320    0.7018014163
C       -0.7997237200   -0.6886525960    1.6401236229
N       -1.7448047652   -0.5491163722    2.4414552182
C        0.6815118636   -0.7278464035   -1.5113509850
C        1.2147862508    0.4541676866   -1.5140254282
H        1.6998861544   -0.4674936771    0.4866568000
H        0.1135815902    1.2304261388    1.3472468518
H       -0.2697468364   -1.6523782859    1.5742104150
H        0.3163519556   -1.5894398449   -2.0496835468
H        1.6187797240    1.2979778812   -2.0525530148
13   
Iteration 1 Energy -340.92120968
C       -2.1409731983    1.4004321176   -0.8150876256
N       -1.3179938121    0.9675710582   -0.0902894006
C        0.8901038864   -0.1089014207   -0.1649062900
C       -0.2705299404    0.4262786533    0.6997800372
C       -0.7989281982   -0.6872511219    1.6435590582
N       -1.7662784595   -0.5595303706    2.4199675744
C        0.6808129671   -0.7263489116   -1.5155248323
C        1.2160233742    0.4548392226   -1.5131249760
H        1.6947883959   -0.4740302602    0.4854691201
H        0.1140908733    1.2286340518    1.3431962391
H       -0.2390936986   -1.6357275916    1.6120993745
H        0.3154648258   -1.5857645090   -2.0571695266
H        1.6225129843    1.2997990821   -2.0479687524
13   
Iteration 2 Energy -340.92124716
C       -2.1410232837    1.3990271195   -0.8165788936
N       -1.3193742509    0.9651672788   -0.0908955895
C        0.8889023974   -0.1110511514   -0.1660032200
C       -0.2713854449    0.4251161239    0.6991506310
C       -0.7969806779   -0.6851406498    1.6473101498