13   
Iteration 17 Energy -340.92393753
C       -2.4075590621    0.2000567085   -1.2605904765
N       -1.5919765546    0.2927162737   -0.4148594095
C        0.8491537523    0.2082914886   -0.1032984894
C       -0.5499356369    0.3895703516    0.5400610222
C       -0.7217206162   -0.6217165289    1.6815939820
N       -1.6214931085   -1.4826765917    1.7746201018
C        1.1121592091   -0.8046273464   -1.1742267245
C        1.0882746876    0.4316662762   -1.5653018102
H        1.6300126042    0.4497999880    0.6273620965
H       -0.5929551732    1.3913669357    0.9913752343
H        0.0563944564   -0.5526705188    2.4590206016
H        1.2207765693   -1.8552926659   -1.3967983079
H        1.1629508993    1.1690489103   -2.3500636635
13   
Iteration 16 Energy -340.92393750
C       -2.4082697005    0.1997806033   -1.2589500878
N       -1.5919836324    0.2925501438   -0.4139153352
C        0.8494456628    0.2090048281   -0.1035215228
C       -0.5492872430    0.3897252763    0.5403625909
C       -0.7203531998   -0.6216373535    1.6820155257
N       -1.6194940397   -1.4832655350    1.7748934475
C        1.1125930831   -0.8038593268   -1.1744407379
C        1.0877124558    0.4323055859   -1.5658341082
H        1.6306170023    0.4512506867    0.6265532477
H       -0.5925145822    1.3915726024    0.9915665251
H        0.0577514544   -0.5521027129    2.4593995950
H        1.2218970560   -1.8544681359   -1.3970034534
H        1.1614659256    1.1698483446   -2.3505149677
13   
Iteration 15 Energy -340.92393735
C       -2.4093978887    0.1999085919   -1.2566359344
N       -1.5919697625    0.2921670468   -0.4126529334
C        0.8498495801    0.2095144247   -0.1039033013
C       -0.5483575427    0.3898718899    0.5406531882
C       -0.7185192312   -0.6211692732    1.6828381136
N       -1.6155366440   -1.4850966800    1.7747496805
C        1.1130706072   -0.8028110088   -1.1752378127
C        1.0870873750    0.4333663429   -1.5665131940
H        1.6314500230    0.4525148942    0.6254622514
H       -0.5915742022    1.3919550453    0.9913873177
H        0.0583781528   -0.5492522828    2.4611975957
H        1.2230082185   -1.8532940491   -1.3981649175
H        1.1597937814    1.1713562667   -2.3508506058
13   
Iteration 14 Energy -340.92393685
C       -2.4106304186    0.2016434856   -1.2536350111
N       -1.5916460725    0.2921137263   -0.4109716390
C        0.8505442847    0.2106525524   -0.1046205955
C       -0.5471180649    0.3903814152    0.5412256537
C       -0.7156326183   -0.6205497432    1.6837806712
N       -1.6079499457   -1.4896035496    1.7729662364
C        1.1132285971   -0.8014609487   -1.1761916111
C        1.0859405972    0.4346775723   -1.5675620981
H        1.6328463379    0.4548657489    0.6235933265
H       -0.5901555992    1.3925542821    0.9917725721
H        0.0582005189   -0.5436702103    2.4647137757
H        1.2234593352   -1.8519288057   -1.3990571678
H        1.1571058385    1.1726621823   -2.3520437099
13   
Iteration 13 Energy -340.92393597
C       -2.4111402799    0.2026962393   -1.2516743387
N       -1.5911850048    0.2917677089   -0.4098003976
C        0.8510318752    0.2114806834   -0.1053728201
C       -0.5463617317    0.3910235469    0.5417765794
C       -0.7129411784   -0.6196571954    1.6847208373
N       -1.6001689045   -1.4941267711    1.7718293304
C        1.1125570048   -0.8001668079   -1.1776451521
C        1.0852360178    0.4362522959   -1.5681875304
H        1.6338654909    0.4552612457    0.6224118652
H       -0.5893072215    1.3932559631    0.9921134860
H        0.0577428187   -0.5373274221    2.4682238116
H        1.2220488687   -1.8506086017   -1.4009123136
H        1.1558812575    1.1743223313   -2.3526622604
13   
Iteration 12 Energy -340.92393503
C       -2.4111101982    0.2041673241   -1.2507167954
N       -1.5907941115    0.2922536323   -0.4090959915
C        0.8513674317    0.2128601840   -0.1059189968
C       -0.5460508189    0.3919351098    0.5423846324
C       -0.7109650786   -0.6194116909    1.6847841159
N       -1.5946675057   -1.4976622432    1.7699559133
C        1.1116309251   -0.7995276618   -1.1778546096
C        1.0845933365    0.4368026537   -1.5687269433
H        1.6345694688    0.4563457289    0.6215396309
H       -0.5891747383    1.3938471473    0.9932493206
H        0.0577239586   -0.5341030058    2.4699564935
H        1.2202410236   -1.8501712107   -1.4004784514
H        1.1549437013    1.1740660119   -2.3540196039
13   
Iteration 11 Energy -340.92393319
C       -2.4105000006    0.2046993530   -1.2505291155
N       -1.5906873904    0.2933180959   -0.4084946375
C        0.8513870745    0.2143219969   -0.1063591948
C       -0.5461369076    0.3935824252    0.5430712961
C       -0.7089295519   -0.6189213611    1.6844372451
N       -1.5886269950   -1.5014016389    1.7682329069
C        1.1099936848   -0.7988724301   -1.1780434866
C        1.0841187255    0.4374396678   -1.5690017034
H        1.6346774778    0.4552639393    0.6217899358
H       -0.5896267091    1.3951846754    0.9943653370
H        0.0582969189   -0.5311788493    2.4707874505
H        1.2169778046   -1.8497526833   -1.4001736164
H        1.1550847922    1.1735838162   -2.3553344366
13   
Iteration 10 Energy -340.92392373
C       -2.4103811614    0.2106481876   -1.2480934609
N       -1.5926266196    0.3024046294   -0.4044833596
C        0.8512235596    0.2210140720   -0.1075127668
C       -0.5458440792    0.3990430052    0.5453935369
C       -0.7048783057   -0.6201494544    1.6807866981
N       -1.5772813449   -1.5108699940    1.7553982567
C        1.1083965540   -0.7990804259   -1.1731246265
C        1.0814217039    0.4347164043   -1.5717331763
H        1.6346719476    0.4621273745    0.6203045948
H       -0.5888549279    1.3989199112    1.0001540155
H        0.0597192378   -0.5329250773    2.4697607190
H        1.2148027508   -1.8513963769   -1.3884889621
H        1.1513763551    1.1641688200   -2.3643900863
13   
Iteration 9 Energy -340.92389261
C       -2.4055623048    0.2104246793   -1.2483677581
N       -1.5954152186    0.3150421633   -0.3988414371
C        0.8511725459    0.2264227379   -0.1073462644
C       -0.5442410683    0.4050674563    0.5475896468
C       -0.7016300203   -0.6207586620    1.6771597200
N       -1.5646286553   -1.5217799927    1.7385239940
C        1.1071920036   -0.7987534086   -1.1675930234
C        1.0753207842    0.4326703124   -1.5738379910
H        1.6354874316    0.4678323913    0.6195971169
H       -0.5834957260    1.4040285110    1.0048542005
H        0.0580040262   -0.5332688611    2.4707041886
H        1.2142468835   -1.8521369322   -1.3774347039
H        1.1416035356    1.1565894205   -2.3718113247
13   
Iteration 8 Energy -340.92381920
C       -2.3967237438    0.2205040143   -1.2473548880
N       -1.5996343049    0.3406571776   -0.3869747856
C        0.8499712918    0.2341330474   -0.1101097446
C       -0.5414184195    0.4107729392    0.5530913140
C       -0.7022474903   -0.6272375493    1.6720694498
N       -1.5555863127   -1.5384298146    1.7126161260
C        1.1144187946   -0.8016303995   -1.1574999668
C        1.0642238066    0.4230907583   -1.5813183641
H        1.6369168045    0.4998894714    0.6053946474
H       -0.5706480975    1.4044807747    1.0223048289
H        0.0467762456   -0.5388309159    2.4753423505
H        1.2335432826   -1.8563473996   -1.3540675179
H        1.1178025982    1.1396012945   -2.3867639038
13   
Iteration 7 Energy -340.92374867
C       -2.3766067254    0.1867319877   -1.2594702086
N       -1.5963976037    0.3335452177   -0.3873530960
C        0.8511225754    0.2267444381   -0.1081300900
C       -0.5395476662    0.4076217417    0.5531478781
C       -0.7027578523   -0.6222632330    1.6801909977
N       -1.5529624249   -1.5360886486    1.7190879127
C        1.1050170659   -0.7971559331   -1.1683871728
C        1.0628429699    0.4333707951   -1.5772400748
H        1.6417374569    0.4855686593    0.6062418428
H       -0.5652924935    1.4032225328    1.0184294840
H        0.0363586439   -0.5200882231    2.4911652234
H        1.2145015957   -1.8502332975   -1.3794131565
H        1.1193562492    1.1628227835   -2.3707736879
13   
Iteration 6 Energy -340.92355973
C       -2.3452735284    0.1991517271   -1.2762744689
N       -1.5854371070    0.3514608202   -0.3872243493
C        0.8522626880    0.2341466314   -0.1092900133
C       -0.5371651007    0.4103300004    0.5626746955
C       -0.7056973359   -0.6336339356    1.6765710866
N       -1.5454922775   -1.5566522650    1.7107791587
C        1.1077984588   -0.8003343308   -1.1606376656
C        1.0447423489    0.4236155688   -1.5835297465
H        1.6481162654    0.5311926105    0.5828074550
H       -0.5590893146    1.3932215984    1.0539041023
H        0.0207890711   -0.5218362866    2.4980264174
H        1.2278564568   -1.8544026786   -1.3606261992
H        1.0794593826    1.1510861177   -2.3800125539
13   
Iteration 5 Energy -340.92292611
C       -2.2985060215    0.0739812397   -1.3076010956
N       -1.5786503741    0.2914179795   -0.3995121687
C        0.8435925605    0.1982347894   -0.1131142820
C       -0.5461645260    0.3958312327    0.5608105648
C       -0.7133450148   -0.6036735408    1.7158013472
N       -1.5412167614   -1.5332986201    1.8025625756
C        1.0545545605   -0.7793979902   -1.2272491554
C        1.0844270224    0.4698869193   -1.5682303890
H        1.6414742645    0.4248487266    0.6011518987
H       -0.5698109543    1.3880599742    1.0320491329
H        0.0117771586   -0.4430985271    2.5310274976
H        1.1109697909   -1.8231196847   -1.4964846123
H        1.1857092218    1.2495519332   -2.3073805700
13   
Iteration 4 Energy -340.92254959
C       -2.3154247230    0.3811267153   -1.2724177815
N       -1.5561389845    0.4547225576   -0.3739804022
C        0.8651222395    0.3176356813   -0.1129985294
C       -0.5205815711    0.4351117838    0.5926185413
C       -0.6953317636   -0.6959632484    1.6150294972
N       -1.5138552824   -1.6368124002    1.5665391556
C        1.1408557299   -0.8191820650   -1.0531630636
C        0.9679722436    0.3383939727   -1.6074217770
H        1.6611544454    0.7786272508    0.4789990727
H       -0.5413153779    1.3614970937    1.1809093940
H        0.0175783712   -0.6341379098    2.4542472211
H        1.3251150322   -1.8792225864   -1.1361248946
H        0.8958166333    0.9742928813   -2.4761131122
13   
Iteration 3 Energy -340.92206909
C       -2.3959378777    0.7566684974   -1.1434318143
N       -1.5698801009    0.6467718883   -0.3100613976
C        0.8600056479    0.4141354481   -0.1402680243
C       -0.5042779907    0.4700597359    0.6113472886
C       -0.6914469518   -0.7811701134    1.4771842203
N       -1.5278724054   -1.6926267641    1.3081884928
C        1.2778787558   -0.8295368104   -0.8759858317
C        0.8895468832    0.1592565537   -1.6158074959
H        1.6037228257    1.0802422749    0.3062807354
H       -0.4884136236    1.3184720033    1.3070206332
H        0.0299975763   -0.8484502078    2.3080098776
H        1.6299423920   -1.8446149582   -0.7748621953
H        0.6694146978    0.5934071571   -2.5787495012
13   
Iteration 2 Energy -340.92182697
C       -2.4442543925    0.9208729133   -1.0517173270
N       -1.5854920121    0.7285628811   -0.2677492024
C        0.8509527849    0.4492001620   -0.1609070818
C       -0.4995678467    0.4827997957    0.6153693932
C       -0.6900078780   -0.8132599874    1.4103095098
N       -1.5421342198   -1.6983758417    1.1864084340
C        1.3411660574   -0.8218185336   -0.8002483030
C        0.8712562991    0.0714246490   -1.6106282116
H        1.5611606265    1.1895539201    0.2180565278
H       -0.4593800297    1.2967062394    1.3500980751
H        0.0402176444   -0.9450209904    2.2254155873
H        1.7645453609   -1.7981629533   -0.6208294428
H        0.6027446112    0.4030530067   -2.6016080265
13   
Iteration 1 Energy -340.92172997
C       -2.4667782538    0.9820963965   -1.0112146888
N       -1.5948126308    0.7595553633   -0.2501024278
C        0.8481608147    0.4598562997   -0.1689524616
C       -0.4991678465    0.4883542379    0.6139748983
C       -0.6923076082   -0.8233503436    1.3823462290
N       -1.5474062865   -1.7032159416    1.1474837419
C        1.3652722054   -0.8170655408   -0.7735347065
C        0.8682537414    0.0391164867   -1.6074146325
H        1.5466526509    1.2217973437    0.1885450857
H       -0.4492478379    1.2919390298    1.3594200194
H        0.0440607210   -0.9755585805    2.1877433821
H        1.8129871915   -1.7770149534   -0.5665525908
H        0.5851409266    0.3326014073   -2.6062981143
13   
Iteration 0 Energy -340.92170113
C       -2.4737834524    0.9948360554   -1.0000228546
N       -1.5981196034    0.7661242943   -0.2449860388
C        0.8478840854    0.4609265684   -0.1705278293
C       -0.4992702254    0.4897282069    0.6135427127
C       -0.6929724471   -0.8246577010    1.3768905876
N       -1.5511136359   -1.6997934267    1.1352462944
C        1.3730400671   -0.8157534511   -0.7682652955
C        0.8675287769    0.0310541454   -1.6065621980
H        1.5435828316    1.2274288378    0.1826573972
H       -0.4471510639    1.2918954073    1.3603570305
H        0.0441926864   -0.9837923813    2.1801999985
H        1.8280947689   -1.7710570822   -0.5558148094
H        0.5800930276    0.3157555678   -2.6067437030
13   
Iteration 20 Energy -340.92170037
C       -2.4737884251    0.9950688724   -0.9999456289
N       -1.5981672665    0.7662183636   -0.2449014042
C        0.8479401273    0.4610151275   -0.1705374583
C       -0.4992594284    0.4897346006    0.6135379106
C       -0.6929989424   -0.8247263991    1.3767532301
N       -1.5511967525   -1.6997999935    1.1350521192
C        1.3732672471   -0.8156322778   -0.7681480373
C        0.8675520944    0.0309565595   -1.6065429884
H        1.5436292706    1.2275523507    0.1825867981
H       -0.4471525214    1.2918903137    1.3603651967
H        0.0442440522   -0.9840188208    2.1799600348
H        1.8282138738   -1.7709472523   -0.5555184494
H        0.5797224864    0.3153835966   -2.6066900309
13   
Iteration 19 Energy -340.92169981
C       -2.4737930045    0.9952219451   -0.9998925212
N       -1.5982050552    0.7662785621   -0.2448367724
C        0.8479820839    0.4610821294   -0.1705368943
C       -0.4992561870    0.4897332160    0.6135370191
C       -0.6930167854   -0.8247783477    1.3766589649
N       -1.5512491308   -1.6998154792    1.1349133277
C        1.3734332742   -0.8155332409   -0.7680653493
C        0.8675720358    0.0308984099   -1.6065306181
H        1.5437174909    1.2275941847    0.1825532237
H       -0.4471855572    1.2919216585    1.3603320792
H        0.0442917376   -0.9841770637    2.1797854741
H        1.8282790830   -1.7708673140   -0.5552984351
H        0.5794358304    0.3151363810   -2.6066482060
13   
Iteration 18 Energy -340.92169939
C       -2.4737979177    0.9953227148   -0.9998545011
N       -1.5982327958    0.7663174124   -0.2447861326
C        0.8480116593    0.4611329893   -0.1705306423
C       -0.4992567141    0.4897274309    0.6135394636
C       -0.6930279639   -0.8248176485    1.3765954274
N       -1.5512817885   -1.6998334723    1.1348156693
C        1.3735524977   -0.8154554691   -0.7680069528
C        0.8675872976    0.0308652790   -1.6065224301
H        1.5438144881    1.2275866201    0.1825319429
H       -0.4472324116    1.2919671048    1.3602803098
H        0.0443304748   -0.9842856553    2.1796583512
H        1.8283151760   -1.7708063523   -0.5551391339
H        0.5792238137    0.3149740873   -2.6066100793
13   
Iteration 17 Energy -340.92169908
C       -2.4738030132    0.9953902668   -0.9998263955
N       -1.5982511134    0.7663433091   -0.2447457481
C        0.8480331818    0.4611728743   -0.1705222273
C       -0.4992576025    0.4897210604    0.6135441323
C       -0.6930329247   -0.8248463196    1.3765533897
N       -1.5513008024   -1.6998496074    1.1347482230
C        1.3736377508   -0.8153965065   -0.7679661564
C        0.8675979294    0.0308486577   -1.6065187138
H        1.5438933811    1.2275488092    0.1825095340
H       -0.4472789431    1.2920108813    1.3602239421
H        0.0443574757   -0.9843578769    2.1795624648
H        1.8283348752   -1.7707555062   -0.5550280255
H        0.5790756210    0.3148649990   -2.6065631271
13   
Iteration 16 Energy -340.92169885
C       -2.4738076964    0.9954361703   -0.9998050344
N       -1.5982615592    0.7663612650   -0.2447137815
C        0.8480500996    0.4612051425   -0.1705142118
C       -0.4992569265    0.4897163689    0.6135496793
C       -0.6930321550   -0.8248659351    1.3765264534
N       -1.5513097878   -1.6998618586    1.1347030893
C        1.3736982135   -0.8153534959   -0.7679390351
C        0.8676043857    0.0308432583   -1.6065201998
H        1.5439415840    1.2274920249    0.1824809631
H       -0.4473176613    1.2920453908    1.3601698460
H        0.0443729274   -0.9844030147    2.1794869466
H        1.8283434873   -1.7707079590   -0.5549559670
H        0.5789809044    0.3147876839   -2.6064974558
13   
Iteration 15 Energy -340.92169867
C       -2.4738114838    0.9954670101   -0.9997891485
N       -1.5982664491    0.7663739488   -0.2446899508
C        0.8480638090    0.4612308874   -0.1705082671
C       -0.4992547029    0.4897143077    0.6135545397
C       -0.6930274984   -0.8248780205    1.3765099470
N       -1.5513120430   -1.6998696892    1.1346743820
C        1.3737397979   -0.8153239120   -0.7679225740
C        0.8676073057    0.0308446406   -1.6065264403
H        1.5439601746    1.2274288601    0.1824486523
H       -0.4473450146    1.2920677791    1.3601236054
H        0.0443796101   -0.9844286735    2.1794274701
H        1.8283444026   -1.7706626316   -0.5549139641
H        0.5789279076    0.3147305340   -2.6064169596
13   
Iteration 14 Energy -340.92169846
C       -2.4738152384    0.9954879485   -0.9997731247
N       -1.5982638644    0.7663833823   -0.2446671812
C        0.8480785057    0.4612569126   -0.1705029312
C       -0.4992461997    0.4897120289    0.6135631520
C       -0.6930128580   -0.8248846611    1.3765019599
N       -1.5513040042   -1.6998752719    1.1346588731
C        1.3737690033   -0.8153062683   -0.7679179966
C        0.8676052338    0.0308595473   -1.6065440930
H        1.5439356257    1.2273297674    0.1823909684
H       -0.4473697099    1.2920885142    1.3600637302
H        0.0443728822   -0.9844339942    2.1793682434
H        1.8283305625   -1.7705992603   -0.5549110431
H        0.5789258768    0.3146763957   -2.6062592651
13   
Iteration 13 Energy -340.92166061
C       -2.4753079072    1.0111168710   -0.9919650829
N       -1.5986837507    0.7759937453   -0.2400661601
C        0.8460848283    0.4643142147   -0.1731443363
C       -0.4989815441    0.4899173590    0.6141852531
C       -0.6951795361   -0.8293175405    1.3688898106
N       -1.5595465265   -1.6981685973    1.1270735453
C        1.3806267666   -0.8132796349   -0.7605855227
C        0.8651448292    0.0210516638   -1.6052071940
H        1.5362179776    1.2404707738    0.1701569224
H       -0.4430261259    1.2856781120    1.3676323291
H        0.0456938827   -0.9976328306    2.1670039623
H        1.8459610883   -1.7619797169   -0.5406556798
H        0.5730018334    0.2945306218   -2.6073465548
13   
Iteration 12 Energy -340.92164459
C       -2.4759980691    1.0178527728   -0.9884170248
N       -1.5987313749    0.7803605587   -0.2380622412
C        0.8449569985    0.4655238125   -0.1743596306
C       -0.4988885108    0.4899584589    0.6145336794
C       -0.6961448396   -0.8312568700    1.3656187891
N       -1.5632446478   -1.6973829174    1.1240815717
C        1.3832323642   -0.8126303405   -0.7574075605
C        0.8639366662    0.0166654933   -1.6045710619
H        1.5324702154    1.2462427446    0.1644965878
H       -0.4410479504    1.2827581797    1.3710492399
H        0.0462141111   -1.0032852415    2.1616842457
H        1.8539628918   -1.7581132941   -0.5347317321
H        0.5712879610    0.2860016842   -2.6079435705
13   
Iteration 11 Energy -340.92163159
C       -2.4765993813    1.0234987268   -0.9852589954
N       -1.5986783383    0.7840618091   -0.2362619887
C        0.8438916108    0.4665329053   -0.1753302183
C       -0.4987553252    0.4898203980    0.6149994205
C       -0.6969061520   -0.8329535000    1.3629042670
N       -1.5663722151   -1.6967804069    1.1216938080
C        1.3852934834   -0.8122223324   -0.7547646010
C        0.8628741832    0.0130370329   -1.6039513253
H        1.5292464755    1.2508341516    0.1593759779
H       -0.4396411817    1.2806094372    1.3735248832
H        0.0464998199   -1.0079444022    2.1573060698
H        1.8608261852   -1.7548077105   -0.5301218350
H        0.5703266512    0.2790089322   -2.6081441705
13   
Iteration 10 Energy -340.92161689
C       -2.4772658848    1.0302465021   -0.9815910798
N       -1.5988447271    0.7879122309   -0.2340285245
C        0.8431220958    0.4679046331   -0.1763048314
C       -0.4985082336    0.4895765068    0.6154748134
C       -0.6977626975   -0.8349279908    1.3596796032
N       -1.5698737378   -1.6961208397    1.1184256564
C        1.3885157193   -0.8112522369   -0.7517307363
C        0.8620106395    0.0090937281   -1.6032241781
H        1.5262090922    1.2556826906    0.1538004242
H       -0.4383847572    1.2785981645    1.3756847411
H        0.0467252843   -1.0134648868    2.1520954125
H        1.8682799249   -1.7509592480   -0.5245682690
H        0.5677830977    0.2704057873   -2.6077417395
13   
Iteration 9 Energy -340.92161078
C       -2.4775365579    1.0330773570   -0.9800795468
N       -1.5989990805    0.7893141180   -0.2330617485
C        0.8429833471    0.4685404274   -0.1766467081
C       -0.4983704351    0.4894380757    0.6156455828
C       -0.6981019427   -0.8357398415    1.3583371401
N       -1.5712586290   -1.6958683501    1.1169060495
C        1.3901391308   -0.8106749015   -0.7505119963
C        0.8617961774    0.0075881220   -1.6029262746
H        1.5252353291    1.2574866456    0.1516528151
H       -0.4380140406    1.2779599360    1.3762933112
H        0.0467594852   -1.0157524291    2.1499409106
H        1.8711450469   -1.7493886346   -0.5222389860
H        0.5662279850    0.2667145162   -2.6073392568
13   
Iteration 8 Energy -340.92160708
C       -2.4777246972    1.0349658224   -0.9791269874
N       -1.5991708394    0.7900306025   -0.2325122330
C        0.8430078530    0.4689148061   -0.1768915345
C       -0.4982835143    0.4893988151    0.6156464647
C       -0.6983647092   -0.8361904866    1.3575151809
N       -1.5721407902   -1.6956174759    1.1158067533
C        1.3913535171   -0.8102148328   -0.7497819778
C        0.8617435314    0.0066160091   -1.6027792286
H        1.5246425662    1.2587744934    0.1504905829
H       -0.4376430706    1.2774028210    1.3768117941
H        0.0467224748   -1.0172156171    2.1486739061
H        1.8729467266   -1.7484252194   -0.5206709399
H        0.5649167675    0.2642553035   -2.6072104886
13   
Iteration 7 Energy -340.92160401
C       -2.4778698900    1.0364464990   -0.9784427390
N       -1.5993962214    0.7905197989   -0.2320840339
C        0.8431360476    0.4692723690   -0.1770681098
C       -0.4982537929    0.4894145701    0.6155629083
C       -0.6985762343   -0.8365320747    1.3568378398
N       -1.5727868689   -1.6954386161    1.1148243774
C        1.3925101938   -0.8096520983   -0.7491952756
C        0.8617861787    0.0058987452   -1.6026998266
H        1.5245097180    1.2596031771    0.1498461929
H       -0.4374092702    1.2770322608    1.3771227306
H        0.0467956826   -1.0184315947    2.1475596353
H        1.8741662619   -1.7476323931   -0.5192059695
H        0.5633940108    0.2621943981   -2.6070864377
13   
Iteration 6 Energy -340.92160076
C       -2.4779860195    1.0379641124   -0.9778029676
N       -1.5993254723    0.7917594302   -0.2318212544
C        0.8428925019    0.4694712725   -0.1774567227
C       -0.4982441397    0.4896557004    0.6154774355
C       -0.6989101706   -0.8368888110    1.3559966795
N       -1.5736976614   -1.6951915044    1.1142962738
C        1.3929508239   -0.8095565554   -0.7484002692
C        0.8615065377    0.0047109175   -1.6026059234
H        1.5230524903    1.2616726371    0.1485823297
H       -0.4363759959    1.2755970728    1.3788012845
H        0.0470640203   -1.0197727414    2.1461168983
H        1.8759415976   -1.7467820877   -0.5175685439
H        0.5631373033    0.2600555981   -2.6076439280
13   
Iteration 5 Energy -340.92159810
C       -2.4782097109    1.0389550487   -0.9768856242
N       -1.5992659798    0.7926387116   -0.2312605857
C        0.8424319164    0.4697853615   -0.1776847851
C       -0.4982923713    0.4894552318    0.6157031100
C       -0.6989970115   -0.8374286428    1.3554683713
N       -1.5743414485   -1.6953170273    1.1139851787
C        1.3931394855   -0.8094077105   -0.7478524652
C        0.8610451977    0.0040283002   -1.6024874199
H        1.5231810441    1.2614661866    0.1476626033
H       -0.4366540363    1.2760109719    1.3783430151
H        0.0471533430   -1.0207302273    2.1452067865
H        1.8775634538   -1.7457210339   -0.5166852164
H        0.5632519334    0.2589598708   -2.6075416760
13   
Iteration 4 Energy -340.92159477
C       -2.4781783065    1.0399189477   -0.9765962679
N       -1.5989422301    0.7933966484   -0.2313461166
C        0.8422774306    0.4695766464   -0.1779008037
C       -0.4981363183    0.4894766966    0.6158419771
C       -0.6994038424   -0.8374003681    1.3552326410
N       -1.5751151223   -1.6948167080    1.1141118697
C        1.3926927826   -0.8104213135   -0.7474027828
C        0.8608531049    0.0029673229   -1.6021887643
H        1.5206310284    1.2646476511    0.1447741718
H       -0.4355593520    1.2736434691    1.3809426828
H        0.0467613640   -1.0210314062    2.1449883127
H        1.8791978359   -1.7458454384   -0.5166783572
H        0.5649274409    0.2585828931   -2.6078072705
13   
Iteration 3 Energy -340.92151103
C       -2.4820351316    1.0854385463   -0.9522514879
N       -1.6012899975    0.8164189569   -0.2166688580
C        0.8378363716    0.4778356382   -0.1849964265
C       -0.4969625302    0.4884683757    0.6173742879
C       -0.7056881590   -0.8495863033    1.3343042447
N       -1.5986043740   -1.6887288961    1.0916004505
C        1.4168588197   -0.8009653678   -0.7284939437
C        0.8565170342   -0.0230731406   -1.5979730474
H        1.5011047516    1.2948243407    0.1129509798
H       -0.4253554744    1.2595457960    1.3949821688
H        0.0480282409   -1.0580454791    2.1105069154
H        1.9279564485   -1.7182632022   -0.4789999479
H        0.5436398157    0.1988257763   -2.6063640438
13   
Iteration 2 Energy -340.92144991
C       -2.4834285830    1.1268890824   -0.9307092256
N       -1.6017424169    0.8418840920   -0.2022605800
C        0.8318104954    0.4851636298   -0.1921866263
C       -0.4959475776    0.4880154566    0.6197802372
C       -0.7122768882   -0.8609589748    1.3135139464
N       -1.6226287258   -1.6818767931    1.0743219543
C        1.4354790053   -0.7940033989   -0.7091329474
C        0.8511720319   -0.0499508920   -1.5923421345
H        1.4765052366    1.3271601210    0.0757561195
H       -0.4137586000    1.2411272744    1.4140015631
H        0.0508674977   -1.0937280738    2.0735358197
H        1.9750138195   -1.6904523208   -0.4439427870
H        0.5309405208    0.1434258383   -2.6043640471
13   
Iteration 1 Energy -340.92141608
C       -2.4882277850    1.1677509990   -0.9049960423
N       -1.6038886465    0.8623529565   -0.1881252183
C        0.8266424276    0.4908689561   -0.1994829892
C       -0.4951108107    0.4868722527    0.6208001248
C       -0.7183794564   -0.8707726835    1.2949962890
N       -1.6417083519   -1.6765032268    1.0539944876
C        1.4555537251   -0.7855524153   -0.6931985354
C        0.8489769040   -0.0739247931   -1.5880760460
H        1.4556108583    1.3516059515    0.0453551262
H       -0.4033175104    1.2272420001    1.4260090759
H        0.0493355734   -1.1237795488    2.0438090809
H        2.0177283739   -1.6633639222   -0.4130121441
H        0.5187905141    0.0898985150   -2.6021019168
13   
Iteration 0 Energy -340.92140873
C       -2.4884547880    1.2030781409   -0.8851637148
N       -1.6042421744    0.8826718284   -0.1746924561
C        0.8210418055    0.4963132607   -0.2060360119
C       -0.4942161119    0.4857031902    0.6226247682
C       -0.7248113188   -0.8801897198    1.2773123586
N       -1.6648673805   -1.6679080105    1.0419470487
C        1.4729703843   -0.7772025091   -0.6776173360
C        0.8459601047   -0.0967645010   -1.5827372695
H        1.4330284877    1.3758327468    0.0142013374
H       -0.3930562273    1.2116531652    1.4399663286
H        0.0513551897   -1.1555372722    2.0093840776
H        2.0584121593   -1.6355097975   -0.3847583948
H        0.5088856853    0.0405545190   -2.5984594438
13   
Iteration 1 Energy -340.92142159
C       -2.4888849393    1.2380611182   -0.8643493708
N       -1.6045302796    0.9028268837   -0.1609049268
C        0.8153388351    0.5014096245   -0.2127538994
C       -0.4933473167    0.4844579010    0.6242181070
C       -0.7315186686   -0.8892544856    1.2594467785
N       -1.6878133019   -1.6589628088    1.0304779677
C        1.4903991210   -0.7682831008   -0.6622728594
C        0.8437421496   -0.1196435441   -1.5769739987
H        1.4098497444    1.3986615531   -0.0172920788
H       -0.3825205298    1.1957648046    1.4533077249
H        0.0526319490   -1.1867631809    1.9741524989
H        2.0983197028   -1.6065321157   -0.3572356325
H        0.5003393496   -0.0090476081   -2.5938490184
13   
Iteration 2 Energy -340.92145398
C       -2.4923057758    1.2747072776   -0.8383548364
N       -1.6057813489    0.9210057145   -0.1467866479
C        0.8097124676    0.5053594430   -0.2201460724
C       -0.4925327213    0.4831031449    0.6250864510
C       -0.7378320730   -0.8973940595    1.2424322023