13   
Iteration 0 Energy -340.92126105
C       -2.4199702557    1.2914890023   -0.9614291784
N       -1.5640254362    0.9558624380   -0.2233693716
C        0.8536580912    0.4887404925   -0.1956710537
C       -0.4787020933    0.5504761243    0.6025851105
C       -0.7696630610   -0.7747881288    1.3160349426
N       -1.7872934849   -1.4836511468    1.1743505604
C        1.4555181101   -0.8168329889   -0.6435569224
C        0.9014933294   -0.1069264895   -1.5725899076
H        1.5024059914    1.3353815413    0.0501192630
H       -0.3610640666    1.3065915360    1.3903018424
H        0.0321520357   -1.0927321947    2.0025975922
H        1.9950211475   -1.6979042714   -0.3300613157
H        0.6404965170    0.0445400154   -2.6093892596
13   
Iteration 1 Energy -340.92132464
C       -2.4132496655    1.2927891673   -0.9665917514
N       -1.5574635682    0.9605499567   -0.2273276521
C        0.8566400757    0.4935950065   -0.1940833008
C       -0.4761463400    0.5532927762    0.6028954646
C       -0.7689866555   -0.7763957289    1.3063145051
N       -1.7846137186   -1.4874107179    1.1565456914
C        1.4566837354   -0.8147010194   -0.6373580761
C        0.8941691043   -0.1095087263   -1.5660271943
H        1.5064880330    1.3414786365    0.0422343155
H       -0.3645792553    1.3046056471    1.3961914646
H        0.0286238210   -1.0958683902    1.9961530595
H        1.9980934478   -1.6941650582   -0.3231846014
H        0.6203779147    0.0419767723   -2.5987671228
13   
Iteration 2 Energy -340.92137710
C       -2.4076561417    1.2926234753   -0.9748211623
N       -1.5521656030    0.9661895135   -0.2326675344
C        0.8587645603    0.4962284136   -0.1907777804
C       -0.4757767711    0.5571667431    0.6034864887
C       -0.7728681494   -0.7765663871    1.2972778687
N       -1.7751313340   -1.4998727667    1.1186440255
C        1.4575400929   -0.8127828168   -0.6347551673
C        0.8892254975   -0.1103146536   -1.5616132609
H        1.5089542111    1.3452613886    0.0393901868
H       -0.3692889351    1.3050924599    1.4004348696
H        0.0085128971   -1.0873183131    2.0092630848
H        1.9963385647   -1.6940380753   -0.3211592432
H        0.5971710693    0.0397849142   -2.5893878664
13   
Iteration 3 Energy -340.92140591
C       -2.4247578859    1.2620458772   -0.9754276175
N       -1.5695512641    0.9367121752   -0.2324466512
C        0.8449690806    0.4872027639   -0.1852387033
C       -0.4933459431    0.5293056391    0.6048092562
C       -0.7792608398   -0.8147682937    1.2825451481
N       -1.7470947695   -1.5708551346    1.0559450013
C        1.4629370478   -0.8125243396   -0.6302417133
C        0.8875011597   -0.1160881707   -1.5571640933
H        1.4823640456    1.3451984595    0.0474069879
H       -0.3963930837    1.2703422822    1.4091306260
H       -0.0195485720   -1.1041084499    2.0263911897
H        2.0086947567   -1.6891028592   -0.3156573291
H        0.5866332677    0.0277533871   -2.5832964030
13   
Iteration 4 Energy -340.92139519
C       -2.5308102075    0.9274949024   -0.8911005430
N       -1.6400891256    0.6757013800   -0.1613953359
C        0.8089460734    0.4986046041   -0.1404062263
C       -0.5191472437    0.3633524033    0.6577731431
C       -0.6444422144   -1.0283057208    1.2858041737
N       -1.4754817823   -1.9092165395    0.9807091087
C        1.5715350435   -0.7073350959   -0.6234281955
C        0.9092505975   -0.0602404413   -1.5278053594
H        1.3421137170    1.4201088076    0.1107522097
H       -0.4987552167    1.0824015383    1.4868567030
H        0.1103825801   -1.2325829033    2.0622029080
H        2.2165914339   -1.5233552607   -0.3350793951
H        0.5769622476    0.0685735465   -2.5462197354
13   
Iteration 5 Energy -340.92140837
C       -2.4545615174    1.1784371813   -0.9505700401
N       -1.5885750042    0.8687723558   -0.2133956450
C        0.8385782572    0.4957955565   -0.1765440107
C       -0.4986188424    0.4833522856    0.6165354607
C       -0.7395033478   -0.8796469775    1.2735342440
N       -1.6668443389   -1.6754442860    1.0158487754
C        1.5064638557   -0.7771246845   -0.6269329424
C        0.9016806567   -0.1011660828   -1.5503371063
H        1.4417838537    1.3778902236    0.0571561519
H       -0.4235178773    1.2150659179    1.4315222617
H        0.0167110429   -1.1451556338    2.0297320925
H        2.0861640254   -1.6330188453   -0.3161517847
H        0.5903849282    0.0319539765   -2.5748120932
13   
Iteration 6 Energy -340.92140863
C       -2.4509808810    1.2045528598   -0.9411893275
N       -1.5810208849    0.8860753344   -0.2124911930
C        0.8456310547    0.5066661938   -0.1928481361
C       -0.4868793518    0.4919039284    0.6078045538
C       -0.7272044555   -0.8750534262    1.2567800599
N       -1.6603144954   -1.6649977685    1.0020106283
C        1.5088617317   -0.7647724409   -0.6541418272
C        0.9003955858   -0.0824180806   -1.5704007672
H        1.4517784095    1.3862139196    0.0428613546
H       -0.4050824420    1.2176624256    1.4274769853
H        0.0347403766   -1.1489490322    2.0041751278
H        2.0888982712   -1.6232991436   -0.3513437520
H        0.5846772158    0.0574325434   -2.5926188465
13   
Iteration 7 Energy -340.92140866
C       -2.4534951673    1.2067530385   -0.9340635900
N       -1.5821918214    0.8864628490   -0.2077684929
C        0.8442074644    0.5059247917   -0.1940159140
C       -0.4865801521    0.4899092400    0.6094294449
C       -0.7262536375   -0.8783801657    1.2558077415
N       -1.6598192747   -1.6676091279    1.0005037888
C        1.5069802110   -0.7647141049   -0.6581648554
C        0.8962091444   -0.0816128635   -1.5723350133
H        1.4504869590    1.3854871072    0.0413077308
H       -0.4027449084    1.2137806873    1.4305632857
H        0.0366265453   -1.1540226258    2.0016060877
H        2.0881034613   -1.6232985119   -0.3576230661
H        0.5782079197    0.0592455611   -2.5937071769
13   
Iteration 8 Energy -340.92140870
C       -2.4712507146    1.2058925951   -0.9094167395
N       -1.5938400575    0.8842332456   -0.1911214469
C        0.8322989101    0.5022074143   -0.1988650824
C       -0.4914212862    0.4861345627    0.6161234873
C       -0.7262965957   -0.8826627538    1.2631817524
N       -1.6620512910   -1.6714367066    1.0145896794
C        1.4914490244   -0.7683516714   -0.6683643088
C        0.8725635613   -0.0857203717   -1.5774145463
H        1.4403151841    1.3820385877    0.0309161105
H       -0.3999955823    1.2091221423    1.4372263749
H        0.0424342950   -1.1591523280    2.0026320416
H        2.0754249930   -1.6266704238   -0.3726282239
H        0.5456934720    0.0546851115   -2.5960466281
13   
Iteration 9 Energy -340.92140872
C       -2.4885765406    1.2034097994   -0.8851947960
N       -1.6044391413    0.8826650238   -0.1747814418
C        0.8208856153    0.4964067487   -0.2059922256
C       -0.4944522067    0.4855891144    0.6225292021
C       -0.7248655418   -0.8804669673    1.2769391504
N       -1.6647403026   -1.6683538941    1.0414328781
C        1.4730645651   -0.7770574860   -0.6773634636
C        0.8461527934   -0.0967574409   -1.5826554718
H        1.4327033994    1.3760298368    0.0142946187
H       -0.3934118716    1.2113752201    1.4400318137
H        0.0513907801   -1.1557563164    2.0089389165
H        2.0585510368   -1.6352720898   -0.3843225195
H        0.5092860260    0.0404255718   -2.5984651939
13   
Iteration 10 Energy -340.92140873
C       -2.4884879905    1.2031688723   -0.8852641564
N       -1.6043303043    0.8826082138   -0.1747942549
C        0.8209843727    0.4963823634   -0.2059982532
C       -0.4943401566    0.4856074734    0.6225522959
C       -0.7248696059   -0.8803720047    1.2770818141
N       -1.6648259188   -1.6681589264    1.0415548419
C        1.4731046861   -0.7770738398   -0.6774805999
C        0.8461468613   -0.0967065017   -1.5826900567
H        1.4328505837    1.3759679966    0.0143087426
H       -0.3932772716    1.2114651500    1.4399884346
H        0.0512879457   -1.1557144340    2.0091654061
H        2.0585835369   -1.6353250703   -0.3845322453
H        0.5092013898    0.0405582900   -2.5984624304
13   
Iteration 11 Energy -340.92140873
C       -2.4884658543    1.2031031175   -0.8852042879
N       -1.6042713814    0.8826476098   -0.1747326439
C        0.8210230932    0.4963408131   -0.2060231607
C       -0.4942590761    0.4856654730    0.6225965851
C       -0.7248389399   -0.8802605863    1.2772207520
N       -1.6648618650   -1.6679980684    1.0417887681
C        1.4730295489   -0.7771479650   -0.6775713973
C        0.8460299385   -0.0967398389   -1.5827211973
H        1.4329617247    1.3758872042    0.0142400408
H       -0.3931364353    1.2115804598    1.4399740948
H        0.0513157045   -1.1556154681    2.0093020947
H        2.0584914862   -1.6354312733   -0.3846828756
H        0.5089991491    0.0405593734   -2.5984604778
13   
Iteration 12 Energy -340.92140873
C       -2.4884575333    1.2030848018   -0.8851750901
N       -1.6042495946    0.8826661123   -0.1747036349
C        0.8210370608    0.4963208727   -0.2060324989
C       -0.4942274878    0.4856934409    0.6226170959
C       -0.7248196084   -0.8802081898    1.2772874179
N       -1.6648671182   -1.6679310668    1.0419036609
C        1.4729872468   -0.7771873012   -0.6776048084
C        0.8459789901   -0.0967581343   -1.5827326689
H        1.4330104384    1.3758479654    0.0142114570
H       -0.3930776580    1.2116341367    1.4399682258
H        0.0513427939   -1.1555583462    2.0093624344
H        2.0584350455   -1.6354876252   -0.3847379249
H        0.5089159870    0.0405550596   -2.5984593648
13   
Iteration 13 Energy -340.92140873
C       -2.4884547880    1.2030781409   -0.8851637148
N       -1.6042421744    0.8826718284   -0.1746924561
C        0.8210418055    0.4963132607   -0.2060360119
C       -0.4942161119    0.4857031902    0.6226247682
C       -0.7248113188   -0.8801897198    1.2773123586
N       -1.6648673805   -1.6679080105    1.0419470487
C        1.4729703843   -0.7772025091   -0.6776173360
C        0.8459601047   -0.0967645010   -1.5827372695
H        1.4330284877    1.3758327468    0.0142013374
H       -0.3930562273    1.2116531652    1.4399663286
H        0.0513551897   -1.1555372722    2.0093840776
H        2.0584121593   -1.6355097975   -0.3847583948
H        0.5088856853    0.0405545190   -2.5984594438
