13   
Climbing Image - Chain 61 Image 9 Energy  -340.9441477268 (+19.840 kcal/mol) RMSGrad 0.019 eV/Ang
C       -2.3323049492    0.7480976921   -0.4898809451
N       -2.7157597809    1.1396881748   -1.5214826049
C        1.2199944791    0.1235942174   -0.3368484979
C        0.3223848181    0.9008569445    0.5267364907
C       -0.8530592090    0.3130587017    1.1913889410
N       -2.0537828887    0.2443697356    0.7267263121
C        1.5945050666   -1.3301209182   -0.0230918379
C        0.7652702553   -1.1726416099   -0.9999337561
H        1.9597121090    0.7408302764   -0.8529244872
H        0.5403807223    1.9496594446    0.7204220050
H       -0.7357163501   -0.1226126784    2.1894959598
H        2.1656385410   -1.9634514801    0.6402481673
H        0.1199420330   -1.5765885860   -1.7666409146
