13   
Iteration 1 Energy -340.92257139
C       -1.7781710178    2.5220538906   -0.0759524578
N       -1.0873016346    1.6406221435    0.2912621193
C        0.8277627136    0.3173842417   -0.4134865005
C       -0.2173625639    0.5857008929    0.6907609254
C       -0.9922922200   -0.6752401819    1.0816840919
N       -2.2306620386   -0.8257812332    1.0283827111
C        1.4064696342   -1.0443133928   -0.6790850875
C        0.5580613107   -0.6127325619   -1.5600363421
H        1.4394526981    1.2108081149   -0.5775969183
H        0.3111963312    0.9203384230    1.5956022976
H       -0.3565906980   -1.4979689599    1.4454798756
H        2.0992478628   -1.8003430072   -0.3400053613
H        0.0201896224   -0.7405283696   -2.4870093536
13   
Iteration 40 Energy -340.92257120
C       -1.7817608907    2.5205066247   -0.0756317205
N       -1.0882748312    1.6403130644    0.2896749348
C        0.8287354076    0.3170874476   -0.4131514281
C       -0.2172425775    0.5862644713    0.6902013875
C       -0.9914286984   -0.6747874831    1.0822555147
N       -2.2296834303   -0.8263456741    1.0294828834
C        1.4052001149   -1.0455324524   -0.6792797481
C        0.5585626366   -0.6115457957   -1.5607469756
H        1.4423132297    1.2094842348   -0.5758016346
H        0.3109708407    0.9220250292    1.5948421463
H       -0.3550808290   -1.4967690501    1.4466407961
H        2.0961967662   -1.8031293618   -0.3400574871
H        0.0214922613   -0.7375710548   -2.4884286690
13   
Iteration 39 Energy -340.92257098
C       -1.7819106453    2.5206401928   -0.0756688096
N       -1.0884605585    1.6404459888    0.2895700145
C        0.8287991562    0.3170477274   -0.4131414000
C       -0.2171710178    0.5862023780    0.6902341258
C       -0.9914450905   -0.6747925787    1.0822906211
N       -2.2297047665   -0.8263486767    1.0295519665
C        1.4052458659   -1.0455547306   -0.6793103816
C        0.5585875878   -0.6115460599   -1.5607572677
H        1.4423762057    1.2094517683   -0.5757734074
H        0.3110651234    0.9219319799    1.5948722198
H       -0.3551244049   -1.4967830838    1.4466669524
H        2.0962467723   -1.8031424640   -0.3400993860
H        0.0214957722   -0.7375524414   -2.4884352477
13   
Iteration 38 Energy -340.92257017
C       -1.7820842061    2.5208753658   -0.0758575700
N       -1.0888236899    1.6405846510    0.2893048907
C        0.8288861133    0.3169875597   -0.4131055941
C       -0.2170268548    0.5860572563    0.6903355180
C       -0.9914867284   -0.6748243832    1.0824197778
N       -2.2297652212   -0.8262661214    1.0297363050
C        1.4053353537   -1.0455569517   -0.6794033754
C        0.5586241723   -0.6115178198   -1.5607926366
H        1.4424408069    1.2094229628   -0.5756874436
H        0.3112743164    0.9217048128    1.5949694502
H       -0.3552567830   -1.4968667439    1.4467705883
H        2.0963817190   -1.8031085446   -0.3402260345
H        0.0215010017   -0.7374920439   -2.4884638757
13   
Iteration 37 Energy -340.92256697
C       -1.7824299168    2.5213439776   -0.0762341058
N       -1.0895475434    1.6408612523    0.2887760005
C        0.8290593096    0.3168675749   -0.4130341484
C       -0.2167395414    0.5857675588    0.6905375832
C       -0.9915696295   -0.6748879172    1.0826775046
N       -2.2298855594   -0.8261010900    1.0301041090
C        1.4055136720   -1.0455611506   -0.6795888238
C        0.5586970947   -0.6114614189   -1.5608631956
H        1.4425693614    1.2093655524   -0.5755157935
H        0.3116912867    0.9212514762    1.5951630943
H       -0.3555208121   -1.4970336773    1.4469774060
H        2.0966507195   -1.8030405796   -0.3404785919
H        0.0215115587   -0.7373715587   -2.4885210386
13   
Iteration 36 Energy -340.92257123
C       -1.7817849794    2.5204309023   -0.0754547344
N       -1.0881203210    1.6403152088    0.2898463763
C        0.8287337917    0.3171011235   -0.4131804480
C       -0.2173096875    0.5863727870    0.6901210054
C       -0.9914056347   -0.6747365874    1.0821340693
N       -2.2296345009   -0.8265034238    1.0293616083
C        1.4051504346   -1.0455795925   -0.6792058205
C        0.5585531389   -0.6115742403   -1.5607121260
H        1.4423526720    1.2094606879   -0.5758628525
H        0.3108548071    0.9221807745    1.5947709940
H       -0.3549594812   -1.4966522215    1.4465358807
H        2.0960834541   -1.8032196169   -0.3399568775
H        0.0214863065   -0.7375958016   -2.4883970752
13   
Iteration 35 Energy -340.92257028
C       -1.7847856935    2.5188308235   -0.0755347854
N       -1.0893070882    1.6396192133    0.2887542613
C        0.8297318280    0.3168835774   -0.4128304599
C       -0.2171412638    0.5870046506    0.6896967005
C       -0.9904719842   -0.6742730075    1.0826568316
N       -2.2285115278   -0.8273522161    1.0294009104
C        1.4038821398   -1.0467275254   -0.6794133482
C        0.5588398601   -0.6103492498   -1.5612517910
H        1.4451389719    1.2082479764   -0.5742084946
H        0.3107551574    0.9239367478    1.5940866107
H       -0.3534938619   -1.4952553684    1.4483107629
H        2.0930759601   -1.8059591137   -0.3401860437
H        0.0222875020   -0.7346065082   -2.4894811546
13   
Iteration 34 Energy -340.92257157
C       -1.7782323075    2.5214774070   -0.0778299428
N       -1.0879291538    1.6400572736    0.2904726000
C        0.8279945129    0.3172990068   -0.4130910642
C       -0.2174327470    0.5856720194    0.6908560369
C       -0.9918633280   -0.6753830827    1.0823998877
N       -2.2301754323   -0.8264455182    1.0293825983
C        1.4058207756   -1.0446433568   -0.6794319648
C        0.5580195477   -0.6118183819   -1.5603553848
H        1.4403817261    1.2104016220   -0.5763759877
H        0.3108370225    0.9209381858    1.5956413706
H       -0.3557855804   -1.4976713822    1.4465437456
H        2.0979460364   -1.8013712647   -0.3405773450
H        0.0204189278   -0.7385125280   -2.4876345498
13   
Iteration 33 Energy -340.92257099
C       -1.7795677225    2.5177001599   -0.0832135394
N       -1.0883982920    1.6386092567    0.2891662171
C        0.8288905363    0.3171724222   -0.4118447388
C       -0.2175062889    0.5861183014    0.6910621945
C       -0.9903224974   -0.6754114239    1.0842522975
N       -2.2283430115   -0.8288018997    1.0308636729
C        1.4033308547   -1.0457271429   -0.6803028807
C        0.5578525597   -0.6088550753   -1.5614179697
H        1.4436780675    1.2090400254   -0.5727943143
H        0.3097688180    0.9235271136    1.5955926744
H       -0.3531213564   -1.4960675514    1.4501527285
H        2.0928410539   -1.8050857468   -0.3420070938
H        0.0208972787   -0.7322184392   -2.4895092483
13   
Iteration 32 Energy -340.92256945
C       -1.7826387932    2.5119939309   -0.0935579746
N       -1.0905827356    1.6359661766    0.2841799669
C        0.8308427512    0.3167593722   -0.4091060279
C       -0.2172641752    0.5862212092    0.6919291012
C       -0.9876882373   -0.6758600216    1.0880568794
N       -2.2254213193   -0.8314027355    1.0347200155
C        1.3995982526   -1.0478739221   -0.6821780315
C        0.5573816180   -0.6034311224   -1.5626282981
H        1.4498763933    1.2064626317   -0.5656785268
H        0.3081317337    0.9274748637    1.5961158490
H       -0.3489819572   -1.4942097012    1.4565077232
H        2.0854103831   -1.8116241806   -0.3462871900
H        0.0213360860   -0.7204765008   -2.4920734863
13   
Iteration 31 Energy -340.92255774
C       -1.7931233319    2.4927514540   -0.1200462538
N       -1.0961761116    1.6272512152    0.2726723977
C        0.8368291086    0.3151223724   -0.4020601768
C       -0.2168297762    0.5879497299    0.6926933311
C       -0.9796376858   -0.6756346288    1.0986736477
N       -2.2159599400   -0.8415001384    1.0443169010
C        1.3870317771   -1.0546401160   -0.6875609866
C        0.5572392520   -0.5873688496   -1.5678397808
H        1.4692636848    1.1976239827   -0.5452874561
H        0.3028752601    0.9413208396    1.5953924045
H       -0.3355204055   -1.4854828553    1.4765748319
H        2.0591841667   -1.8322481550   -0.3559742643
H        0.0248240017   -0.6851448506   -2.5015545958
13   
Iteration 30 Energy -340.92252887
C       -1.8077223508    2.4682510253   -0.1513079692
N       -1.1026305622    1.6162953179    0.2565763719
C        0.8443299174    0.3134575320   -0.3933955679
C       -0.2161928593    0.5901106985    0.6938342234
C       -0.9693405173   -0.6754665557    1.1117224904
N       -2.2040497407   -0.8522465462    1.0556213580
C        1.3713916807   -1.0627414046   -0.6941835018
C        0.5572719351   -0.5675268253   -1.5735672132
H        1.4936834227    1.1860622360   -0.5202452187
H        0.2967472641    0.9581841931    1.5945744664
H       -0.3194278260   -1.4751629730    1.5011827595
H        2.0264110114   -1.8573537943   -0.3687401535
H        0.0295286249   -0.6418629037   -2.5120720452
13   
Iteration 29 Energy -340.92250196
C       -1.8173373798    2.4520439057   -0.1700264349
N       -1.1075500286    1.6088911723    0.2470517731
C        0.8496178889    0.3117704677   -0.3879263596
C       -0.2154089180    0.5914766612    0.6939907669
C       -0.9628272527   -0.6746233391    1.1198721215
N       -2.1961479163   -0.8599412524    1.0619567054
C        1.3609744113   -1.0681145124   -0.6985033440
C        0.5574153033   -0.5547586949   -1.5771668942
H        1.5098913393    1.1776102108   -0.5040509826
H        0.2923752422    0.9698227824    1.5929432126
H       -0.3087699767   -1.4668647233    1.5177424588
H        2.0045346051   -1.8736334158   -0.3771362115
H        0.0332326821   -0.6136792624   -2.5187468115
13   
Iteration 28 Energy -340.92247372
C       -1.8271627571    2.4377507565   -0.1858388850
N       -1.1104557373    1.6029962093    0.2381152694
C        0.8534492758    0.3109465046   -0.3836176334
C       -0.2150762539    0.5933198933    0.6947167551
C       -0.9569023545   -0.6742404028    1.1271701472
N       -2.1891756276   -0.8656790488    1.0666368354
C        1.3519218553   -1.0724887579   -0.7023923314
C        0.5580320782   -0.5439117849   -1.5805960035
H        1.5235115469    1.1703912474   -0.4906286453
H        0.2900343720    0.9786716223    1.5924192344
H       -0.3003047759   -1.4604634245    1.5327115268
H        1.9851968997   -1.8873087233   -0.3840715646
H        0.0369314784   -0.5899840910   -2.5246247050
13   
Iteration 27 Energy -340.92244678
C       -1.8313812915    2.4285746747   -0.1935621173
N       -1.1131570929    1.5995915909    0.2335194797
C        0.8570162781    0.3093305207   -0.3808332688
C       -0.2140895307    0.5924596356    0.6937034810
C       -0.9538396839   -0.6733340048    1.1311903048
N       -2.1850404590   -0.8706324010    1.0689879307
C        1.3464318182   -1.0751820920   -0.7046510289
C        0.5581892902   -0.5371252182   -1.5823492788
H        1.5318265831    1.1656350542   -0.4820237995
H        0.2864245299    0.9860683664    1.5899191147
H       -0.2945994021   -1.4544653225    1.5422289485
H        1.9733329158   -1.8957540096   -0.3885374923
H        0.0388860448   -0.5751667944   -2.5275922739
13   
Iteration 26 Energy -340.92241291
C       -1.8406232175    2.4163620809   -0.2080873739
N       -1.1191009007    1.5929377493    0.2332020620
C        0.8598449394    0.3094216946   -0.3782967351
C       -0.2127265584    0.5971047088    0.6958666533
C       -0.9495748174   -0.6716566849    1.1356885575
N       -2.1804011320   -0.8707649931    1.0705181348
C        1.3406229395   -1.0782774003   -0.7075887731
C        0.5589604003   -0.5301142135   -1.5846324823
H        1.5427361051    1.1601413878   -0.4741433568
H        0.2893844241    0.9903693600    1.5911258345
H       -0.2906826640   -1.4511079387    1.5509256534
H        1.9602069925   -1.9049806653   -0.3931979219
H        0.0413534890   -0.5594350858   -2.5313802525
13   
Iteration 25 Energy -340.92236299
C       -1.8542877375    2.3882021152   -0.2273746130
N       -1.1089760017    1.5914988111    0.2194284112
C        0.8645451685    0.3080741354   -0.3718999899
C       -0.2095811551    0.5964765590    0.6995222280
C       -0.9448535686   -0.6707933160    1.1444943249
N       -2.1744458930   -0.8734958928    1.0671509132
C        1.3325968359   -1.0808792354   -0.7135727678
C        0.5570315160   -0.5175958963   -1.5862214385
H        1.5546094426    1.1536404064   -0.4598775677
H        0.2879487992    0.9986236779    1.5943014293
H       -0.2876085149   -1.4440341657    1.5729476231
H        1.9438166925   -1.9163874890   -0.4059463146
H        0.0392044161   -0.5333297098   -2.5329522380
13   
Iteration 24 Energy -340.92230881
C       -1.8594196520    2.3686305369   -0.2412684039
N       -1.1138668296    1.5863217125    0.2252713720
C        0.8705181249    0.3074738268   -0.3689840600
C       -0.2039135270    0.5962776450    0.7014820997
C       -0.9433718169   -0.6673558949    1.1459086336
N       -2.1729990364   -0.8674090187    1.0616770804
C        1.3312335249   -1.0815718313   -0.7161864868
C        0.5552424719   -0.5121174077   -1.5846634180
H        1.5626325374    1.1514077904   -0.4554015927
H        0.2909005449    1.0030347934    1.5953738771
H       -0.2899339430   -1.4412197248    1.5788139995
H        1.9391878906   -1.9209676723   -0.4126750975
H        0.0337897103   -0.5225047552   -2.5293480033
13   
Iteration 23 Energy -340.92217461
C       -1.8703049216    2.3360253982   -0.2628907046
N       -1.1017060660    1.5857758276    0.2247515157
C        0.8745540862    0.3085038683   -0.3640072917
C       -0.1970427313    0.5988413761    0.7097945214
C       -0.9431397275   -0.6643380546    1.1492273561
N       -2.1731008491   -0.8567518321    1.0505293674
C        1.3310705655   -1.0801303816   -0.7204371828
C        0.5504045912   -0.5058022929   -1.5813637545
H        1.5683447487    1.1512773839   -0.4513926372
H        0.2981492811    1.0013203861    1.6038996982
H       -0.2986664715   -1.4422236455    1.5886220843
H        1.9392909474   -1.9217078358   -0.4241120760
H        0.0221465467   -0.5107901977   -2.5226208963
13   
Iteration 22 Energy -340.92188046
C       -1.8765865406    2.2954501908   -0.2876750606
N       -1.0913079998    1.5866805883    0.2309858282
C        0.8806280921    0.3096370240   -0.3585642384
C       -0.1868295285    0.5980634499    0.7191413324
C       -0.9449311648   -0.6600556514    1.1493123477
N       -2.1759695032   -0.8376442889    1.0347172948
C        1.3350808718   -1.0764844253   -0.7243596326
C        0.5429650464   -0.5011623379   -1.5742230745
H        1.5710340131    1.1543566667   -0.4507914083
H        0.3078664953    0.9996570644    1.6162324725
H       -0.3132626708   -1.4459408427    1.5915682646
H        1.9479941653   -1.9184113544   -0.4377333106
H        0.0033187236   -0.5041460834   -2.5086108153
13   
Iteration 21 Energy -340.92142189
C       -1.8802298324    2.2537428866   -0.3122666409
N       -1.0777091994    1.5893752202    0.2399916767
C        0.8850648944    0.3123380911   -0.3539665403
C       -0.1762540191    0.5988839760    0.7300830349
C       -0.9481467364   -0.6555570537    1.1481875376
N       -2.1801010701   -0.8167769147    1.0182705870
C        1.3403205659   -1.0712864670   -0.7272833757
C        0.5350463812   -0.4982215893   -1.5662775464
H        1.5712566565    1.1601963411   -0.4529968463
H        0.3184010942    0.9915499502    1.6268454476
H       -0.3303540319   -1.4516632402    1.5926009448
H        1.9597036556   -1.9107811179   -0.4492833357
H       -0.0169983584   -0.5018000825   -2.4939049433
13   
Iteration 20 Energy -340.92095276
C       -1.8805643731    2.2206630924   -0.3300418164
N       -1.0668303167    1.5931308575    0.2482398577
C        0.8874452433    0.3145218134   -0.3516600367
C       -0.1694545501    0.5986087571    0.7370786988
C       -0.9512424987   -0.6519893823    1.1466326503
N       -2.1839150242   -0.8009479919    1.0060596248
C        1.3440757351   -1.0663152182   -0.7288842845
C        0.5286557105   -0.4969360008   -1.5608368444
H        1.5679887484    1.1655150587   -0.4565307849
H        0.3299454444    0.9872393601    1.6403079082
H       -0.3445990653   -1.4563946250    1.5887600288
H        1.9697141308   -1.9040889492   -0.4562153523
H       -0.0312191844   -0.5030067718   -2.4829096492
13   
Iteration 19 Energy -340.92042607
C       -1.8800055521    2.1969083300   -0.3416261304
N       -1.0601804804    1.5959212740    0.2539455206
C        0.8874455735    0.3176472023   -0.3502750465
C       -0.1573058832    0.5978840138    0.7507298572
C       -0.9546366778   -0.6473193709    1.1445737373
N       -2.1874246068   -0.7905624056    0.9987578144
C        1.3458955930   -1.0625666285   -0.7287533078
C        0.5248404577   -0.4967779075   -1.5571572426
H        1.5665188357    1.1706907552   -0.4606257879
H        0.3353600220    0.9815314754    1.6431859532
H       -0.3544164848   -1.4607811616    1.5843236977
H        1.9740239312   -1.8968932378   -0.4591445931
H       -0.0401147281   -0.5056823388   -2.4779344721
13   
Iteration 18 Energy -340.91967549
C       -1.8786967073    2.1538138853   -0.3655434239
N       -1.0451542188    1.6102899886    0.2737623225
C        0.8888576159    0.3201578940   -0.3481309754
C       -0.1602680801    0.6036321946    0.7492992916
C       -0.9574586183   -0.6451630096    1.1413207613
N       -2.1911028675   -0.7704488577    0.9864111615
C        1.3515374841   -1.0573556403   -0.7301371197
C        0.5181510425   -0.4959142604   -1.5500777191
H        1.5614725727    1.1765290725   -0.4634975301
H        0.3484779213    0.9647614853    1.6553784206
H       -0.3671482610   -1.4633702646    1.5805519862
H        1.9878668403   -1.8895695372   -0.4658855059
H       -0.0565347238   -0.5073629503   -2.4634516697
13   
Iteration 17 Energy -340.91863013
C       -1.8725294394    2.1071503341   -0.3826597789
N       -1.0327556590    1.6230566430    0.2906222789
C        0.8850272639    0.3259008167   -0.3502818125
C       -0.1469443984    0.6014104278    0.7636181339
C       -0.9640895970   -0.6377224082    1.1370763390
N       -2.1979302605   -0.7563734338    0.9768081646
C        1.3513792861   -1.0499097343   -0.7286738237
C        0.5120730455   -0.4963794300   -1.5481361093
H        1.5523484750    1.1850371944   -0.4722420756
H        0.3666820797    0.9575349978    1.6703724226
H       -0.3835528073   -1.4664248013    1.5686851877
H        1.9935608235   -1.8777471224   -0.4647494301
H       -0.0632688120   -0.5155334837   -2.4604394965
13   
Iteration 16 Energy -340.91728312
C       -1.8640734779    2.0608273256   -0.3979930533
N       -1.0179886760    1.6400847592    0.3138026935
C        0.8802404701    0.3316765858   -0.3524773095
C       -0.1436210137    0.6083558143    0.7707843369
C       -0.9700082891   -0.6300610322    1.1339957208
N       -2.2040378920   -0.7438391687    0.9706959523
C        1.3514061616   -1.0428440269   -0.7254095914
C        0.5080498654   -0.4970362832   -1.5465081920
H        1.5438246582    1.1944488800   -0.4800364412
H        0.3812831440    0.9345769370    1.6722119335
H       -0.3945686847   -1.4673126412    1.5604590695
H        1.9974787519   -1.8654479305   -0.4594941099
H       -0.0679850179   -0.5234292194   -2.4600310092
13   
Iteration 15 Energy -340.91590652
C       -1.8607780356    2.0324559807   -0.4067305837
N       -1.0114245880    1.6460363986    0.3249056337
C        0.8732711851    0.3355910311   -0.3576878316
C       -0.1393739086    0.6086586805    0.7770222657
C       -0.9758296905   -0.6241270198    1.1285142527
N       -2.2101630455   -0.7423593997    0.9666808769
C        1.3481148997   -1.0384543284   -0.7247748706
C        0.5056051777   -0.4983704969   -1.5505280152
H        1.5332900686    1.1965504854   -0.4880885044
H        0.4061743466    0.9389815687    1.7028238374
H       -0.4038935745   -1.4616429383    1.5467758810
H        1.9986094019   -1.8623487994   -0.4555019919
H       -0.0636022369   -0.5309711626   -2.4634109501
13   
Iteration 14 Energy -340.91451874
C       -1.8487717870    1.9948977428   -0.4132542352
N       -1.0026138103    1.6810199025    0.3506362926
C        0.8709008559    0.3382760023   -0.3587684137
C       -0.1344581421    0.6059850679    0.7799696582
C       -0.9780477119   -0.6229434584    1.1289849983
N       -2.2122371203   -0.7357916446    0.9674923959
C        1.3480978067   -1.0362891977   -0.7226315497
C        0.5050185958   -0.4989919072   -1.5498270721
H        1.5319613365    1.2022180785   -0.4897951356
H        0.3936793434    0.9257408349    1.6767192780
H       -0.4065330348   -1.4670374126    1.5475203794
H        1.9979213178   -1.8532117062   -0.4504339307
H       -0.0649176498   -0.5338723024   -2.4666126654
13   
Iteration 13 Energy -340.91209072
C       -1.8361371896    1.9466222946   -0.4212050871
N       -0.9897857117    1.6994554713    0.3755156121
C        0.8564203920    0.3475847294   -0.3665671982
C       -0.1392944424    0.6262555662    0.7869024388
C       -0.9892420428   -0.6081423540    1.1250591805
N       -2.2228748463   -0.7365138640    0.9703064903
C        1.3420304036   -1.0281427219   -0.7158510900
C        0.5054138366   -0.5010258890   -1.5564571667
H        1.5179063428    1.2109249049   -0.5023984221
H        0.4254097163    0.8851171202    1.6849903855
H       -0.4115213129   -1.4531985057    1.5344333713
H        1.9935147274   -1.8413966712   -0.4337606914
H       -0.0518398729   -0.5475400808   -2.4809678229
13   
Iteration 12 Energy -340.90928510
C       -1.8209969865    1.9047202940   -0.4231269773
N       -0.9814882487    1.7321635958    0.4029132950
C        0.8494604323    0.3492797007   -0.3733842911
C       -0.1384556303    0.6211665651    0.7853149359
C       -0.9942110364   -0.6049656966    1.1221563922
N       -2.2281317547   -0.7410620455    0.9723994167
C        1.3375061599   -1.0259755432   -0.7153606197
C        0.5059928548   -0.5034842417   -1.5638897585
H        1.5085556607    1.2121652397   -0.5081871551
H        0.4306122991    0.8999733904    1.6943497479
H       -0.4172115952   -1.4512126310    1.5237381472
H        1.9903304186   -1.8381223698   -0.4257409346
H       -0.0419625737   -0.5546462579   -2.4911821986
13   
Iteration 11 Energy -340.90564949
C       -1.8023812990    1.8606445289   -0.4212956179
N       -0.9755652485    1.7618485426    0.4282889976
C        0.8365534661    0.3564523290   -0.3804225100
C       -0.1381053595    0.6338635648    0.7935120297
C       -1.0034374516   -0.5936871436    1.1183604117
N       -2.2357599144   -0.7484056358    0.9788626056
C        1.3324064677   -1.0225682145   -0.7104835427
C        0.5099129820   -0.5059712545   -1.5712064188
H        1.5017648042    1.2171099145   -0.5166459079
H        0.4365310140    0.8748389897    1.6828121317
H       -0.4158474715   -1.4388461599    1.5173016681
H        1.9816970844   -1.8305525854   -0.4121620589
H       -0.0277690740   -0.5647268759   -2.5069217881
13   
Iteration 10 Energy -340.90160033
C       -1.7908197690    1.8218772366   -0.4257225946
N       -0.9708936596    1.7906175966    0.4528475512
C        0.8264335096    0.3608693521   -0.3883907149
C       -0.1477220814    0.6432784306    0.7885395379
C       -1.0112044236   -0.5881295387    1.1133669212
N       -2.2425278966   -0.7571698655    0.9817929894
C        1.3282994835   -1.0201044660   -0.7095677014
C        0.5132780489   -0.5075631177   -1.5795500978
H        1.4927246726    1.2175767957   -0.5240085723
H        0.4567389376    0.8635183708    1.6985223969
H       -0.4167659502   -1.4236777970    1.5124636475
H        1.9771763496   -1.8300514223   -0.4031576703
H       -0.0147172214   -0.5710415752   -2.5171356929
13   
Iteration 9 Energy -340.89647576
C       -1.7641758192    1.7796857886   -0.4165857304
N       -0.9739238576    1.8392827946    0.4780437060
C        0.8209979292    0.3633762106   -0.3935878675
C       -0.1535609356    0.6480225857    0.7825315839
C       -1.0154187091   -0.5856551329    1.1129388856
N       -2.2458859457   -0.7644558822    0.9892786009
C        1.3277410267   -1.0199693106   -0.7079949843
C        0.5193035455   -0.5091479205   -1.5849157305
H        1.4901136225    1.2213851079   -0.5271849872
H        0.4413510503    0.8468492178    1.6699229211
H       -0.4126740565   -1.4172437999    1.5193869252
H        1.9712178862   -1.8274075565   -0.3940746142
H       -0.0050857368   -0.5747221024   -2.5277587084
13   
Iteration 8 Energy -340.89076868
C       -1.7469424378    1.7446625369   -0.4124079714
N       -0.9698918911    1.8745749579    0.5075357254
C        0.8177130064    0.3612069993   -0.4003566360
C       -0.1612361845    0.6378530334    0.7704634169
C       -1.0180335924   -0.5919300356    1.1080657456
N       -2.2493017967   -0.7758667183    0.9908032886
C        1.3264652653   -1.0238157336   -0.7132425347
C        0.5233683186   -0.5109321671   -1.5928696585
H        1.4875254240    1.2156873118   -0.5279025699
H        0.4337957091    0.8934630735    1.6795692245
H       -0.4153256914   -1.4158218617    1.5190182654
H        1.9684081698   -1.8344607394   -0.3939192498
H        0.0034557008   -0.5746206571   -2.5347570461
13   
Iteration 7 Energy -340.88513398
C       -1.7193250713    1.7104049512   -0.4012284518
N       -0.9848934239    1.9219084993    0.5147911143
C        0.8128132243    0.3666700545   -0.4050699641
C       -0.1689921717    0.6509829154    0.7616245935
C       -1.0226932698   -0.5838757733    1.1106971726
N       -2.2507183113   -0.7778803090    0.9989020764
C        1.3279475116   -1.0204818401   -0.7070669915
C        0.5297410152   -0.5120037457   -1.5946879291
H        1.4831793855    1.2249913839   -0.5328522068
H        0.4240559728    0.8248780257    1.6457931081
H       -0.4061782012   -1.3989682658    1.5329109385
H        1.9646672266   -1.8278831385   -0.3832389757
H        0.0103961132   -0.5787427577   -2.5405744843
13   
Iteration 6 Energy -340.87968899
C       -1.7021462233    1.6860087173   -0.3951819601
N       -0.9964147143    1.9645316919    0.5250671392
C        0.8124744501    0.3655556092   -0.4081151707
C       -0.1753901601    0.6451680218    0.7492352486
C       -1.0229277804   -0.5872366684    1.1101364781
N       -2.2510682734   -0.7813563747    1.0015853175
C        1.3297442035   -1.0211948988   -0.7078311692
C        0.5336199099   -0.5127027740   -1.5970744640
H        1.4802021537    1.2260730600   -0.5335479585
H        0.4173214347    0.8151614201    1.6342602601
H       -0.4035408526   -1.3940610722    1.5438573727
H        1.9643113853   -1.8292067328   -0.3795669549
H        0.0138144667   -0.5767399993   -2.5428241389
13   
Iteration 5 Energy -340.87449505
C       -1.6795870850    1.6572112033   -0.3834328137
N       -1.0039959686    2.0056336114    0.5419867012
C        0.8130812416    0.3623899463   -0.4115960749
C       -0.1822665171    0.6343964128    0.7354727755
C       -1.0222078854   -0.5948982191    1.1085645011
N       -2.2512213101   -0.7891872877    1.0036169184
C        1.3307153945   -1.0251498165   -0.7119886209
C        0.5374875035   -0.5140200327   -1.6014966450
H        1.4805366805    1.2226921495   -0.5318740848
H        0.3994200001    0.8458551518    1.6263093398
H       -0.4024501716   -1.3957176515    1.5502641378
H        1.9625654279   -1.8344711669   -0.3790443449
H        0.0179226897   -0.5747343007   -2.5467817897
13   
Iteration 4 Energy -340.86814982
C       -1.6456911028    1.6208295734   -0.3616001122
N       -1.0086532049    2.0515597571    0.5684090738
C        0.8150448492    0.3567749438   -0.4159907479
C       -0.1918649223    0.6172425638    0.7164571629
C       -1.0207524846   -0.6074488456    1.1071643058
N       -2.2515859256   -0.8014425242    1.0068822334
C        1.3319649820   -1.0317588559   -0.7199884612
C        0.5425183032   -0.5160125046   -1.6087278545
H        1.4834812683    1.2155201251   -0.5274433952
H        0.3642562346    0.9142952479    1.6131446011
H       -0.4023348864   -1.4033345051    1.5549378649
H        1.9599626896   -1.8428981018   -0.3800586545
H        0.0236541996   -0.5733268740   -2.5531860167
13   
Iteration 3 Energy -340.86288758
C       -1.6120983004    1.5899977784   -0.3409224118
N       -1.0300242215    2.1073856540    0.5746614178
C        0.8160391952    0.3542259554   -0.4204935734
C       -0.2001578294    0.6068248229    0.6977500505
C       -1.0200892915   -0.6131382783    1.1080085812
N       -2.2503126854   -0.8068729047    1.0115130333
C        1.3351439044   -1.0341191398   -0.7204544901
C        0.5485831479   -0.5181441142   -1.6117172612
H        1.4808412202    1.2167902164   -0.5283301931
H        0.3408659348    0.9119111141    1.5934028888
H       -0.3972027487   -1.3982076714    1.5706763084
H        1.9597996196   -1.8457758902   -0.3778431077
H        0.0286120548   -0.5708775425   -2.5562512426
13   
Iteration 2 Energy -340.85945883
C       -1.5752687573    1.5623566568   -0.3113117963
N       -1.0405269242    2.1510798140    0.5917702303
C        0.8199717683    0.3478550496   -0.4225128524
C       -0.2095105226    0.5898807765    0.6796796258
C       -1.0173682420   -0.6246715463    1.1102005165
N       -2.2493743052   -0.8162620327    1.0164154697
C        1.3369851999   -1.0393004660   -0.7269948198
C        0.5530727820   -0.5201763467   -1.6179753793
H        1.4850076546    1.2104499067   -0.5216138625
H        0.2996286197    0.9709631050    1.5684102613
H       -0.3950518519   -1.4081303228    1.5746131221
H        1.9588724281   -1.8508955640   -0.3782919172
H        0.0335621506   -0.5731490302   -2.5623885984
13   
Iteration 1 Energy -340.85794538
C       -1.5456620342    1.5392310123   -0.2905492937
N       -1.0617410352    2.1945709731    0.5910812412
C        0.8184198784    0.3458416153   -0.4285474205
C       -0.2180533392    0.5834774344    0.6649215750
C       -1.0171889210   -0.6305996370    1.1094035188