13   
Iteration 1 Energy -340.92257148
C       -1.7783939532    2.5219002842   -0.0755215291
N       -1.0873823723    1.6405100182    0.2915251805
C        0.8276758530    0.3174728497   -0.4136093645
C       -0.2172829442    0.5856466378    0.6908288743
C       -0.9920319576   -0.6753814232    1.0818240849
N       -2.2304037448   -0.8259618916    1.0286987826
C        1.4064139061   -1.0441774582   -0.6793770930
C        0.5578371874   -0.6125947918   -1.5601657590
H        1.4392822754    1.2109448641   -0.5777709254
H        0.3113986862    0.9202874851    1.5955970495
H       -0.3562187946   -1.4980888128    1.4454779688
H        2.0992871001   -1.8001886937   -0.3404507743
H        0.0198187583   -0.7403690678   -2.4870564953
13   
Iteration 1 Energy -340.97576472
C       -2.2144597013    1.3780127056    1.6761083841
N       -2.4319376209    2.4518454424    2.1014802808
C        1.1897242356    0.1186201164   -0.6630611506
C        0.0390332839    0.5672137151    0.1339653892
C       -1.0245401402   -0.2393692494    0.5315585015
N       -2.0850949643    0.1319072532    1.2544452144
C        1.6993499742   -1.3211462964   -0.5915731204
C        1.0669917664   -1.0227963190   -1.6728106040
H        1.9146087794    0.9085359045   -0.8689889811
H        0.0198053180    1.6133135413    0.4356796720
H       -1.0298761328   -1.2888187870    0.2432142010
H        2.2135212765   -2.0189309088    0.0523103230
H        0.6428739253   -1.2783871179   -2.6323281099
