13   
Climbing Image - Chain 52 Image 3 Energy  -340.9487185316 (+14.426 kcal/mol) RMSGrad 0.059 eV/Ang
C       -1.6111089220   -1.3810859214   -0.0452687591
N       -2.2331811217   -1.4955936964   -1.0349982144
C        0.4401482367    1.1664502070   -0.2092799959
C        0.3260622365    0.7211705637    1.1016165728
C       -0.2352519390   -0.4829435217    1.6344208741
N       -1.0187695498   -1.4043035377    1.1336861878
C        1.2653679432   -0.0842713557   -1.5365187318
C        0.0868723657    0.4265480624   -1.4558548935
H        0.8654163116    2.1593939026   -0.3435190453
H        0.7872355701    1.3526993180    1.8603243033
H        0.0418858952   -0.6802270830    2.6711647542
H        2.1315305337   -0.6684443183   -1.7708771380
H       -0.8483034371    0.3676614426   -2.0073772703
