13   
IRC reactant Energy -340.92315420
C       -2.6491754996    0.6178804341   -0.5664939533
N       -1.7315588192    0.7286750344    0.1660149313
C        0.5399705428   -0.1470558116    0.5595026985
C       -0.5999785845    0.8067549192    1.0296790943
C       -1.0325959938    0.4538487041    2.4603882662
N       -0.7593306409    1.1673041766    3.4479210080
C        0.5532457650   -0.6927670917   -0.8388199670
C        1.4241861168    0.2339428869   -0.5892302484
H        0.9470008280   -0.7360721652    1.3867562250
H       -0.2461438506    1.8430114263    1.0350313510
H       -1.5813055841   -0.4938353489    2.5756140584
H        0.0878907591   -1.3902288266   -1.5181249989
H        2.2242006554    0.8829546918   -0.9126227960
