13   
Iteration 0 Energy -340.92315420
C       -2.6491754996    0.6178804341   -0.5664939533
N       -1.7315588192    0.7286750344    0.1660149313
C        0.5399705428   -0.1470558116    0.5595026985
C       -0.5999785845    0.8067549192    1.0296790943
C       -1.0325959938    0.4538487041    2.4603882662
N       -0.7593306409    1.1673041766    3.4479210080
C        0.5532457650   -0.6927670917   -0.8388199670
C        1.4241861168    0.2339428869   -0.5892302484
H        0.9470008280   -0.7360721652    1.3867562250
H       -0.2461438506    1.8430114263    1.0350313510
H       -1.5813055841   -0.4938353489    2.5756140584
H        0.0878907591   -1.3902288266   -1.5181249989
H        2.2242006554    0.8829546918   -0.9126227960
13   
Iteration 1 Energy -340.92318920
C       -2.6381489543    0.6267585314   -0.5745415103
N       -1.7246048472    0.7348828339    0.1633894791
C        0.5426281070   -0.1435173248    0.5617760082
C       -0.5967476200    0.8104925464    1.0317835634
C       -1.0342624466    0.4520482591    2.4600390137
N       -0.7696007399    1.1550598726    3.4572522726
C        0.5507718854   -0.6986011199   -0.8325635754
C        1.4175872323    0.2351801006   -0.5950030961
H        0.9552828260   -0.7271275465    1.3900717374
H       -0.2430545172    1.8468024573    1.0382815954
H       -1.5834177711   -0.4965599102    2.5651797608
H        0.0849757144   -1.4033473764   -1.5040381037
H        2.2116715730    0.8865527167   -0.9281072025
13   
Iteration 2 Energy -340.92334594
C       -2.5895303840    0.6751721314   -0.6121127325
N       -1.6963299612    0.7671018324    0.1522651314
C        0.5564600805   -0.1210063964    0.5714444720
C       -0.5861189037    0.8270789826    1.0433685247
C       -1.0488601941    0.4324506339    2.4544915072
N       -0.8058773318    1.1070212119    3.4758118075
C        0.5403225535   -0.7242932155   -0.8017745705
C        1.3900595588    0.2377681894   -0.6224776575
H        0.9974769919   -0.6745681769    1.4056360208
H       -0.2350171944    1.8641003541    1.0661769950
H       -1.5982112278   -0.5200733875    2.5234398996
H        0.0725839272   -1.4634072660   -1.4339157799
H        2.1582614104    0.8946326743   -1.0021303690
13   
Iteration 3 Energy -340.92395490
C       -2.4377380684    0.8554290571   -0.7212850818
N       -1.6132471374    0.8843121343    0.1209016756
C        0.6033812093   -0.0358613532    0.5944925524
C       -0.5582274566    0.8817183131    1.0780906637
C       -1.0960513234    0.3642849824    2.4216951343
N       -0.9271159465    0.9290869518    3.5200906672
C        0.5172821339   -0.8088854496   -0.6867739746
C        1.2920955732    0.2296461764   -0.7120648059
H        1.1476212370   -0.4665098062    1.4399807333
H       -0.2178075723    1.9179444184    1.1749912447
H       -1.6387597964   -0.5939108063    2.3626431137
H        0.0604108845   -1.6574454678   -1.1728140420
H        1.9616025148    0.8854292359   -1.2479970831
13   
Iteration 4 Energy -340.92452314
C       -2.2504977912    1.1301039513   -0.8254432492
N       -1.5198547000    1.0572205093    0.0966095283
C        0.6552344181    0.0880281172    0.6056989776
C       -0.5332806121    0.9504961964    1.1182732875
C       -1.1507951441    0.2633252787    2.3467801715
N       -1.0681251332    0.6647224202    3.5227075369
C        0.5197439805   -0.9104258839   -0.5027459881
C        1.1326354714    0.1881872896   -0.8140753043
H        1.3391931014   -0.1423591453    1.4277214630
H       -0.2102622275    1.9749333584    1.3305915682
H       -1.6741875668   -0.6809981540    2.1166382203
H        0.1306429637   -1.8820590276   -0.7673149302
H        1.6310373542    0.8020879803   -1.5489205575
13   
Iteration 5 Energy -340.92533251
C       -2.2448975606    1.1800356451   -0.8357568292
N       -1.5232076300    1.0841940672    0.0915463253
C        0.6629778181    0.1151483816    0.6021426010
C       -0.5399551303    0.9536306631    1.1155424022
C       -1.1619084708    0.2428552973    2.3270738160
N       -1.0711224667    0.6310743780    3.5076003486
C        0.5255810052   -0.9210396474   -0.4710543993
C        1.1189108095    0.1749862526   -0.8266426063
H        1.3685788594   -0.0670433340    1.4186880650
H       -0.2173330749    1.9690873863    1.3663756497
H       -1.6858878810   -0.6963992381    2.0815372574
H        0.1506212250   -1.9071514542   -0.7004138624
H        1.5974674156    0.7714835412   -1.5884892563
13   
Iteration 6 Energy -340.92636506
C       -2.2552742044    1.2875677922   -0.8407990879
N       -1.5355460127    1.1409966193    0.0823086741
C        0.6657681509    0.1494047627    0.5892211821
C       -0.5572668639    0.9491014453    1.1003850537
C       -1.1890183290    0.2084241685    2.2863925363
N       -1.0469809158    0.5893048204    3.4669833571
C        0.5574880085   -0.9538126938   -0.4224186631
C        1.0843420412    0.1513867568   -0.8494623941
H        1.4129966607    0.0840391694    1.3872721512
H       -0.2233801890    1.9293485447    1.4558054002
H       -1.7411755111   -0.7097926801    2.0348691399
H        0.2413771057   -1.9704172069   -0.6017639955
H        1.5181623277    0.7316187866   -1.6497138189
13   
Iteration 7 Energy -340.92644324
C       -2.2614007010    1.2684363439   -0.8367726272
N       -1.5312142545    1.1332218239    0.0796981435
C        0.6686737848    0.1459995546    0.5900154928
C       -0.5555333508    0.9463621771    1.0978694757
C       -1.1891034955    0.2134675505    2.2914319909
N       -1.0526668277    0.5894135952    3.4743874798
C        0.5508565627   -0.9487980972   -0.4290414394
C        1.0922312764    0.1529202268   -0.8473660179
H        1.4158486704    0.0783962740    1.3878419354
H       -0.2206336450    1.9288458179    1.4470764164
H       -1.7461471143   -0.7027869955    2.0432663467
H        0.2254373480   -1.9606903408   -0.6180116078
H        1.5362879434    0.7348477090   -1.6408252324
13   
Iteration 8 Energy -340.92649371
C       -2.2632661320    1.2797097190   -0.8291847698
N       -1.5228437243    1.1464855583    0.0791261501
C        0.6704048259    0.1502423465    0.5884317509
C       -0.5537620132    0.9498198934    1.0983651010
C       -1.1947233134    0.2083839524    2.2852010347
N       -1.0595346688    0.5661670206    3.4736774645
C        0.5571201415   -0.9550172381   -0.4190467698
C        1.0819145932    0.1483292484   -0.8533146523
H        1.4260237140    0.1019056699    1.3794489908
H       -0.2175523770    1.9301000012    1.4536973288
H       -1.7600016036   -0.7003771771    2.0270872167
H        0.2444537058   -1.9728557521   -0.5977099743
H        1.5163435506    0.7276871477   -1.6539247199
13   
Iteration 9 Energy -340.92652586
C       -2.2852901657    1.2490583456   -0.8145312626
N       -1.5195113479    1.1369993467    0.0752471209
C        0.6695929370    0.1362324735    0.5914428639
C       -0.5519731126    0.9449390322    1.0951186391
C       -1.1966084036    0.2159091279    2.2881532048
N       -1.0488328016    0.5803195462    3.4729199080
C        0.5558635207   -0.9503538705   -0.4349023184
C        1.0914381404    0.1562099080   -0.8477256401
H        1.4196419116    0.0729682285    1.3865536308
H       -0.2115455823    1.9260703520    1.4444396774
H       -1.7753192320   -0.6871176992    2.0394053917
H        0.2390936609   -1.9630496990   -0.6347765258
H        1.5408849711    0.7462914405   -1.6319276477
13   
Iteration 10 Energy -340.92654562
C       -2.2900502660    1.2586056319   -0.8114614537
N       -1.5183898101    1.1476048368    0.0733888952
C        0.6703325296    0.1458957915    0.5895251662
C       -0.5529547325    0.9496152918    1.0954832029
C       -1.1992984456    0.2102723889    2.2800431920
N       -1.0495486485    0.5607904486    3.4687390085
C        0.5602892914   -0.9529662271   -0.4239815701
C        1.0868365978    0.1521449358   -0.8516554724
H        1.4231677182    0.0932529690    1.3827525316
H       -0.2137854242    1.9281873394    1.4523616326
H       -1.7796184181   -0.6882525446    2.0194805804
H        0.2511672055   -1.9706483779   -0.6103305367
H        1.5317978120    0.7348169995   -1.6438238114
13   
Iteration 11 Energy -340.92655184
C       -2.2943552748    1.2582762803   -0.8105833236
N       -1.5187232541    1.1500231469    0.0711797531
C        0.6715866172    0.1499356142    0.5895221113
C       -0.5532978995    0.9514268298    1.0948688842
C       -1.2001025894    0.2088272453    2.2761129106
N       -1.0479787346    0.5554457326    3.4657311997
C        0.5608857555   -0.9522984566   -0.4208121302
C        1.0874009636    0.1517372419   -0.8514262738
H        1.4233935957    0.0961606434    1.3838274826
H       -0.2160900018    1.9298942262    1.4533253559
H       -1.7811906395   -0.6878765046    2.0112951113
H        0.2516808090   -1.9707313682   -0.6026858750
H        1.5330250628    0.7310038876   -1.6457554538
13   
Iteration 12 Energy -340.92655247
C       -2.2976944357    1.2540779868   -0.8097886920
N       -1.5199375687    1.1480631775    0.0703715875
C        0.6711751795    0.1492537529    0.5892689075
C       -0.5538026049    0.9511648037    1.0939480021
C       -1.2002106680    0.2105143927    2.2765998707
N       -1.0462142417    0.5582235916    3.4657049503
C        0.5608918387   -0.9512805053   -0.4235004519
C        1.0905047592    0.1526548341   -0.8504126171
H        1.4207399297    0.0919910222    1.3854113001
H       -0.2170516219    1.9302872335    1.4510439730
H       -1.7827784407   -0.6856673476    2.0133895285
H        0.2501871968   -1.9688409172   -0.6074037291
H        1.5394069422    0.7321727203   -1.6427661064
13   
Iteration 13 Energy -340.92655283
C       -2.2969344185    1.2541582396   -0.8112007466
N       -1.5193799448    1.1482596358    0.0691460539
C        0.6715232376    0.1499316867    0.5894432613
C       -0.5538143237    0.9515640921    1.0932866918
C       -1.2009500705    0.2109331786    2.2756522832
N       -1.0462409095    0.5578570901    3.4649025928
C        0.5608716957   -0.9512544036   -0.4228004434
C        1.0902512853    0.1526478288   -0.8501966193
H        1.4210145504    0.0929346988    1.3856839705
H       -0.2175479772    1.9308149048    1.4505583550
H       -1.7848070129   -0.6843569044    2.0122677287
H        0.2499435794   -1.9688922961   -0.6057322964
H        1.5386608983    0.7316158509   -1.6432735594
