13   
Iteration 1 Energy -340.96809897
C       -1.6754960509   -1.3948087533   -0.0101939819
N       -2.2954512510   -1.5279397143   -1.0037096343
C        0.5992516231    1.0506060179   -0.3214709946
C        0.4165818576    0.5975180892    1.0651132103
C       -0.2487288764   -0.4888800073    1.6456737650
N       -1.1107285113   -1.3855588620    1.1710705102
C        1.2501311669    0.1313491801   -1.3704834872
C        0.0080416409    0.4052100647   -1.5648188951
H        0.8625864626    2.1114228811   -0.3674755393
H        0.9587224657    1.2010632098    1.7934483155
H       -0.0358442170   -0.6429654754    2.7036134378
H        2.1800938911   -0.3551156823   -1.6193052506
H       -0.9091602017    0.2980990513   -2.1214614554
13   
Iteration 0 Energy -340.96809906
C       -1.6807769381   -1.3906368691   -0.0082329006
N       -2.3026978264   -1.5207270169   -1.0009093404
C        0.5965710771    1.0502075619   -0.3222503279
C        0.4173147805    0.5956520335    1.0644630127
C       -0.2484191811   -0.4901719117    1.6454763309
N       -1.1137025344   -1.3843699980    1.1719962981
C        1.2545750255    0.1342579387   -1.3700277900
C        0.0109724890    0.4005486635   -1.5656694191
H        0.8539657163    2.1125158008   -0.3682763907
H        0.9625314401    1.1974989847    1.7919387760
H       -0.0331651348   -0.6460389800    2.7026726751
H        2.1878564560   -0.3461522409   -1.6180699438
H       -0.9050253697    0.2874160334   -2.1231109801
13   
Iteration 21 Energy -340.96809882
C       -1.6838120603   -1.3879677509   -0.0071186376
N       -2.3074297629   -1.5159219590   -0.9990103272
C        0.5950455740    1.0500023829   -0.3227732649
C        0.4172958336    0.5947713229    1.0639755615
C       -0.2480602134   -0.4910011446    1.6452315492
N       -1.1149130537   -1.3839997148    1.1722447085
C        1.2571412880    0.1361362619   -1.3693229181
C        0.0126543608    0.3977497852   -1.5662039016
H        0.8484509607    2.1132597765   -0.3690149619
H        0.9647126282    1.1954095770    1.7908183737
H       -0.0309371276   -0.6481975752    2.7018440034
H        2.1922940657   -0.3413309310   -1.6161930564
H       -0.9024424931    0.2810899691   -2.1244771286
13   
Iteration 20 Energy -340.96809573
C       -1.6939876025   -1.3793338909   -0.0033346197
N       -2.3225190353   -1.5008256900   -0.9929429241
C        0.5905145874    1.0485146180   -0.3241993891
C        0.4183904831    0.5914559402    1.0630223058
C       -0.2471117416   -0.4937630968    1.6448990725
N       -1.1193791022   -1.3823330440    1.1732803436
C        1.2659757329    0.1417485762   -1.3688430322
C        0.0185336015    0.3880810287   -1.5675962710
H        0.8322526496    2.1145484731   -0.3707125340
H        0.9696415225    1.1902791585    1.7885175376
H       -0.0254898429   -0.6547669917    2.7000001547
H        2.2073119115   -0.3238835153   -1.6146461334
H       -0.8941331638    0.2602784340   -2.1274445108
13   
Iteration 19 Energy -340.96809127
C       -1.7006059431   -1.3735391931   -0.0010177532
N       -2.3338617444   -1.4896880746   -0.9882621804
C        0.5873849614    1.0480601445   -0.3252569066
C        0.4182143292    0.5900605968    1.0622139477
C       -0.2459445181   -0.4957893733    1.6440450643
N       -1.1206393357   -1.3823790147    1.1729344465
C        1.2716694390    0.1453947153   -1.3674588293
C        0.0225471990    0.3817551971   -1.5684647133
H        0.8208833224    2.1158931718   -0.3725192653
H        0.9726056878    1.1872081935    1.7867323749
H       -0.0207487929   -0.6597450755    2.6979300932
H        2.2167149725   -0.3138409807   -1.6111667468
H       -0.8882195769    0.2466096931   -2.1297095317
13   
Iteration 18 Energy -340.96808379
C       -1.7068819791   -1.3666274636    0.0008417641
N       -2.3473719655   -1.4741754001   -0.9827019336
C        0.5835504109    1.0480492371   -0.3264023270
C        0.4171677162    0.5898441249    1.0613849150
C       -0.2429078917   -0.4989794885    1.6421086030
N       -1.1189506429   -1.3842203244    1.1708094997
C        1.2772019326    0.1477960301   -1.3649984557
C        0.0268679279    0.3745281034   -1.5690330624
H        0.8092524452    2.1175121116   -0.3750777839
H        0.9713029422    1.1876093252    1.7856008630
H       -0.0130779698   -0.6670607204    2.6943532330
H        2.2257469799   -0.3060482792   -1.6050787544
H       -0.8818999059    0.2317727437   -2.1318065609
13   
Iteration 17 Energy -340.96807293
C       -1.7110290575   -1.3616257424    0.0023413190
N       -2.3584290294   -1.4608420008   -0.9775555139
C        0.5805048754    1.0476906466   -0.3269797999
C        0.4142774336    0.5909404551    1.0610039531
C       -0.2403431862   -0.5016337420    1.6404925953
N       -1.1155224413   -1.3873942214    1.1683207399
C        1.2797292206    0.1467834724   -1.3609717343
C        0.0293178826    0.3692727755   -1.5700305847
H        0.8041585582    2.1173342584   -0.3788133826
H        0.9679014277    1.1895205539    1.7849610432
H       -0.0059293192   -0.6735001423    2.6911241216
H        2.2329406601   -0.2981942413   -1.5994667105
H       -0.8775770245    0.2216479281   -2.1344260462
13   
Iteration 16 Energy -340.96805526
C       -1.7111634752   -1.3567864524    0.0015373874
N       -2.3669809690   -1.4446004360   -0.9737559020
C        0.5775721929    1.0497045464   -0.3281188559
C        0.4117089784    0.5936647240    1.0601984826
C       -0.2348032797   -0.5053149967    1.6370920893
N       -1.1064595615   -1.3933788424    1.1627741368
C        1.2817485061    0.1466335767   -1.3583111132
C        0.0310779569    0.3654470136   -1.5694738506
H        0.7962564132    2.1203378693   -0.3808825115
H        0.9589072234    1.1967161574    1.7852976870
H        0.0036279696   -0.6808978836    2.6862347211
H        2.2331845907   -0.3066663065   -1.5875928502
H       -0.8746765456    0.2151410302   -2.1349994208
13   
Iteration 15 Energy -340.96802901
C       -1.7107669480   -1.3534560635    0.0020437799
N       -2.3740476635   -1.4299151792   -0.9691027463
C        0.5744703500    1.0497549211   -0.3285339134
C        0.4060700344    0.5969706801    1.0602968557
C       -0.2310960208   -0.5082529315    1.6351936641
N       -1.0977337699   -1.4002301362    1.1587044417
C        1.2812025413    0.1423202309   -1.3526882082
C        0.0322777886    0.3626049361   -1.5703475364
H        0.7956311818    2.1196381383   -0.3846820089
H        0.9493901669    1.2032661580    1.7855702722
H        0.0120049002   -0.6870590956    2.6827395665
H        2.2346341122   -0.3074494648   -1.5808486668
H       -0.8720366733    0.2118078064   -2.1383455003
13   
Iteration 14 Energy -340.96800217
C       -1.7091343035   -1.3516161928    0.0019504453
N       -2.3778110485   -1.4191021111   -0.9660564646
C        0.5727683724    1.0505608339   -0.3292119847
C        0.4025550993    0.5992261699    1.0597410292
C       -0.2277512915   -0.5107360409    1.6333883053
N       -1.0900567048   -1.4061191474    1.1552563272
C        1.2807088044    0.1401197209   -1.3508493406
C        0.0320313325    0.3615351726   -1.5710267695
H        0.7946624758    2.1200886657   -0.3867093280
H        0.9413984780    1.2087922841    1.7856284366
H        0.0180291066   -0.6910584594    2.6800709382
H        2.2341146328   -0.3130421965   -1.5720955786
H       -0.8715149533    0.2113513010   -2.1400860158
13   
Iteration 13 Energy -340.96797736
C       -1.7073682428   -1.3506111638    0.0021937716
N       -2.3796568887   -1.4113224663   -0.9636976767
C        0.5716549780    1.0505292198   -0.3294473791
C        0.3994246073    0.6009013094    1.0598156582
C       -0.2257267151   -0.5123137751    1.6326589201
N       -1.0844284502   -1.4106470592    1.1533386710
C        1.2804341226    0.1379956291   -1.3481536208
C        0.0331296029    0.3610705303   -1.5715473007
H        0.7937703394    2.1200478499   -0.3874425018
H        0.9343494834    1.2134138599    1.7860636898
H        0.0218921744   -0.6934119542    2.6787801050
H        2.2323471455   -0.3178151357   -1.5705037355
H       -0.8698221567    0.2121631559   -2.1420586012
13   
Iteration 12 Energy -340.96795548
C       -1.7059875737   -1.3501350489    0.0024178944
N       -2.3816121095   -1.4048050872   -0.9614534524
C        0.5712361803    1.0501994280   -0.3297640314
C        0.3969686577    0.6017356853    1.0596213491
C       -0.2246258595   -0.5135475906    1.6321838102
N       -1.0797407984   -1.4147821900    1.1516315791
C        1.2797371870    0.1365103026   -1.3485800083
C        0.0325449050    0.3609212459   -1.5723710411
H        0.7957185788    2.1190194096   -0.3891748392
H        0.9292195531    1.2162748323    1.7861366673
H        0.0239899116   -0.6948241020    2.6780628613
H        2.2331429670   -0.3185557439   -1.5659845857
H       -0.8705915994    0.2119888589   -2.1427262034
13   
Iteration 11 Energy -340.96793722
C       -1.7044595433   -1.3498324156    0.0025641019
N       -2.3823268261   -1.4001144547   -0.9599142871
C        0.5716361598    1.0497931970   -0.3297930258
C        0.3954444512    0.6024957424    1.0598577442
C       -0.2237966595   -0.5143325265    1.6321983250
N       -1.0760317830   -1.4176839938    1.1504882287
C        1.2798147001    0.1357401861   -1.3479123117
C        0.0330917218    0.3609127601   -1.5732131126
H        0.7950627304    2.1188883641   -0.3885671690
H        0.9246935809    1.2191618345    1.7867680745
H        0.0249180556   -0.6954567717    2.6780866535
H        2.2317364218   -0.3218521842   -1.5667351531
H       -0.8697830097    0.2122802622   -2.1438280684
13   
Iteration 10 Energy -340.96792196
C       -1.7032344094   -1.3501180703    0.0024973756
N       -2.3825526259   -1.3977816833   -0.9591015191
C        0.5712619900    1.0498567895   -0.3293842061
C        0.3937565203    0.6032251598    1.0600747421
C       -0.2233155634   -0.5145901519    1.6319598725
N       -1.0733741062   -1.4197244539    1.1494637524
C        1.2791347409    0.1375332110   -1.3480348478
C        0.0326006235    0.3609799978   -1.5741772659
H        0.7983519934    2.1182059527   -0.3881886110
H        0.9224130179    1.2203885822    1.7869518971
H        0.0254593451   -0.6954470759    2.6778700581
H        2.2296749450   -0.3237335325   -1.5651409990
H       -0.8701764713    0.2112052748   -2.1447902489
13   
Iteration 9 Energy -340.96790000
C       -1.7022041420   -1.3506393774    0.0023536253
N       -2.3818160714   -1.3973117950   -0.9590465004
C        0.5703963884    1.0505235018   -0.3277220483
C        0.3925228174    0.6039442574    1.0607949471
C       -0.2233547565   -0.5146950938    1.6321866350
N       -1.0719494563   -1.4207850927    1.1490975475
C        1.2796798739    0.1401654701   -1.3466036707
C        0.0323351992    0.3612856323   -1.5744982337
H        0.8017907419    2.1173866064   -0.3888477192
H        0.9207155095    1.2212250520    1.7879144986
H        0.0249507752   -0.6951669909    2.6782833367
H        2.2270299303   -0.3262774985   -1.5682449802
H       -0.8700968097    0.2103453281   -2.1456674376
13   
Iteration 8 Energy -340.96779610
C       -1.6992485247   -1.3457972340    0.0061001078
N       -2.3853194077   -1.3764388025   -0.9509129018
C        0.5692368874    1.0449662407   -0.3303912878
C        0.3905566017    0.6039193340    1.0618978683
C       -0.2162141444   -0.5212108305    1.6328048943
N       -1.0595828926   -1.4305452206    1.1476529302
C        1.2789110325    0.1248799401   -1.3482046432
C        0.0342199700    0.3589676651   -1.5784151533
H        0.7897778246    2.1144434415   -0.3903038516
H        0.8996383964    1.2353061035    1.7905136834
H        0.0319902199   -0.7007676922    2.6792129056
H        2.2317591159   -0.3309300174   -1.5634576006
H       -0.8657250792    0.2232070722   -2.1564969513
13   
Iteration 7 Energy -340.96755736
C       -1.6987869582   -1.3361140857    0.0059534694
N       -2.3836409482   -1.3548363882   -0.9519824791
C        0.5828198269    1.0348231369   -0.3323501106
C        0.3756038113    0.6107298062    1.0652816895
C       -0.2161865611   -0.5243012064    1.6335681909
N       -1.0533134950   -1.4366074275    1.1437180759
C        1.2850753504    0.1238078754   -1.3529407366
C        0.0369984692    0.3502426178   -1.5691731620
H        0.7965009988    2.1057962426   -0.3949032993
H        0.8687235349    1.2528446796    1.7955430918
H        0.0392691068   -0.7099137775    2.6772988911
H        2.2365476569   -0.3276243164   -1.5852702593
H       -0.8696107928    0.2111528431   -2.1347433616
13   
Iteration 6 Energy -340.96621359
C       -1.6992466309   -1.3311629704    0.0055783216
N       -2.3795160833   -1.3504871731   -0.9552926792
C        0.5649149547    1.0433388093   -0.3183334751
C        0.3580304208    0.6242144979    1.0743667461
C       -0.2184943098   -0.5251048196    1.6356096674
N       -1.0530943972   -1.4358379450    1.1436776500
C        1.3019912362    0.1063509852   -1.3821466003
C        0.0531299822    0.3528063583   -1.5510287132
H        0.7940055981    2.1095285980   -0.3926127914
H        0.8418776873    1.2704800121    1.8067469409
H        0.0496835700   -0.7205408140    2.6744881561
H        2.2453517731   -0.3550079945   -1.6309804299
H       -0.8586338013    0.2114224558   -2.1100727930
13   
Iteration 5 Energy -340.96293071
C       -1.7001596535   -1.3293666976    0.0054694833
N       -2.3780167071   -1.3503083705   -0.9566216671
C        0.5394180327    1.0575736026   -0.3019009486
C        0.3472318887    0.6341641746    1.0804697983
C       -0.2206498964   -0.5254745146    1.6360511451
N       -1.0540473511   -1.4343190350    1.1447388458
C        1.3152731059    0.0857289159   -1.4144665826
C        0.0673576800    0.3566851967   -1.5363222417
H        0.7919080838    2.1146957901   -0.3876254854
H        0.8255916934    1.2816419839    1.8150083607
H        0.0571199390   -0.7269079906    2.6712588337
H        2.2560088839   -0.3774829676   -1.6634006260
H       -0.8470356992    0.2133699122   -2.0926589157
13   
Iteration 4 Energy -340.95867209
C       -1.7011150894   -1.3286623896    0.0057535269
N       -2.3773416552   -1.3514020149   -0.9571555149
C        0.5116985852    1.0726717259   -0.2839783568
C        0.3378896294    0.6435091158    1.0854137251
C       -0.2231940843   -0.5260727590    1.6361129238
N       -1.0550954665   -1.4329585235    1.1463058305
C        1.3262120641    0.0655461036   -1.4467606801
C        0.0815325551    0.3603150048   -1.5225534875
H        0.7931088738    2.1213057276   -0.3824456004
H        0.8106519166    1.2910026759    1.8230187818
H        0.0638405866   -0.7320621196    2.6681076652
H        2.2673268794   -0.3984440991   -1.6939091535
H       -0.8355147949    0.2152515523   -2.0779096600
13   
Iteration 3 Energy -340.95446588
C       -1.7018385241   -1.3281936505    0.0056877263
N       -2.3761786911   -1.3531436010   -0.9575359439
C        0.4841257768    1.0886064911   -0.2649303690
C        0.3292169062    0.6532340207    1.0889716874
C       -0.2262113964   -0.5266615897    1.6359816514
N       -1.0557854350   -1.4309741209    1.1486666050
C        1.3380696794    0.0452075480   -1.4777786297
C        0.0958926134    0.3632004955   -1.5090899434
H        0.7948009829    2.1251329643   -0.3717615403
H        0.7959000760    1.3023136030    1.8287351432
H        0.0692235407   -0.7365342238    2.6649456498
H        2.2757465417   -0.4188026083   -1.7277359672
H       -0.8229620705    0.2166146716   -2.0641560697
13   
Iteration 2 Energy -340.95119643
C       -1.7020585599   -1.3287611756    0.0065383222
N       -2.3741178387   -1.3564729579   -0.9573691672
C        0.4549234873    1.1031994545   -0.2446928776
C        0.3204931586    0.6649009037    1.0936124465
C       -0.2303431201   -0.5273922798    1.6371304354
N       -1.0563249630   -1.4292895055    1.1518361103
C        1.3498628135    0.0279599174   -1.5056709724
C        0.1121178309    0.3669537549   -1.4955678756
H        0.8026042157    2.1269127156   -0.3656220397
H        0.7743602189    1.3142966943    1.8405670120
H        0.0756776772   -0.7411677071    2.6626281925
H        2.2806957578   -0.4408306586   -1.7711233138
H       -0.8078906780    0.2196908440   -2.0522662726
13   
Iteration 1 Energy -340.94953586
C       -1.7019340821   -1.3253742137    0.0053646243
N       -2.3704953106   -1.3555099857   -0.9599666840
C        0.4409494265    1.1159172553   -0.2269439491
C        0.3106432215    0.6758107281    1.0964902973
C       -0.2328210770   -0.5276567801    1.6372731317
N       -1.0581410119   -1.4250839192    1.1541060744
C        1.3659171777    0.0056405455   -1.5291392268
C        0.1315860192    0.3680863972   -1.4796007265
H        0.7742066807    2.1438231819   -0.3501222392
H        0.7687480957    1.3194387571    1.8458726543
H        0.0767689978   -0.7431893918    2.6614524075
H        2.2839361296   -0.4715562510   -1.8179233603
H       -0.7893642672    0.2196536763   -2.0368630037
13   
Iteration 0 Energy -340.94931067
C       -1.7028007667   -1.3287446459    0.0089648452
N       -2.3700656397   -1.3625551989   -0.9564744448
C        0.4179059371    1.1253093666   -0.2159127563
C        0.3077726647    0.6795930422    1.0976983141
C       -0.2361247798   -0.5285609878    1.6400944858
N       -1.0608421775   -1.4241103488    1.1606151970
C        1.3740473760   -0.0009129022   -1.5435861190
C        0.1422590256    0.3726069452   -1.4758258389
H        0.7850598321    2.1414603452   -0.3416600311
H        0.7546547427    1.3269442166    1.8504811806
H        0.0800136629   -0.7447093246    2.6623533786
H        2.2842276000   -0.4832451941   -1.8468787347
H       -0.7761074775    0.2269246866   -2.0398694766
13   
Iteration 1 Energy -340.94947687
C       -1.7011962635   -1.3277267757    0.0063891221
N       -2.3675887606   -1.3624730298   -0.9589838846
C        0.3939680861    1.1386120126   -0.2048575088
C        0.3056834985    0.6865295537    1.0983963286
C       -0.2368945426   -0.5287127921    1.6386762999
N       -1.0603997160   -1.4216335602    1.1602406069
C        1.3789932193   -0.0111974407   -1.5517940082
C        0.1499774295    0.3711125702   -1.4637750884
H        0.7939229930    2.1415409674   -0.3367521900
H        0.7423834780    1.3352407629    1.8557342381
H        0.0865729955   -0.7486125563    2.6580004409
H        2.2813669850   -0.4967596855   -1.8693865483
H       -0.7667894023    0.2240799736   -2.0318878081
13   
Iteration 2 Energy -340.95063684
C       -1.7003196761   -1.3223726694    0.0058630444
N       -2.3621687464   -1.3590630330   -0.9621055369
C        0.3897927987    1.1449840361   -0.1890020906
C        0.2955935182    0.6983528379    1.1069123907
C       -0.2372029285   -0.5281440654    1.6410491492
N       -1.0608949699   -1.4168606739    1.1614959115
C        1.3982674176   -0.0341961065   -1.5699251627
C        0.1738162656    0.3736614594   -1.4508895895
H        0.7450440529    2.1657929393   -0.3204768140
H        0.7363569437    1.3420154573    1.8667023325
H        0.0869052852   -0.7519859169    2.6593601955
H        2.2764844526   -0.5386953446   -1.9281100806
H       -0.7416744138    0.2265110796   -2.0208737495
13   
Iteration 3 Energy -340.95098474
C       -1.6993909369   -1.3231789514    0.0061070128
N       -2.3607402776   -1.3607560093   -0.9618189752
C        0.3845902041    1.1476472906   -0.1863344183
C        0.2947636596    0.6998595427    1.1073094041
C       -0.2376272377   -0.5287461825    1.6419311882
N       -1.0600947197   -1.4169005807    1.1625178951
C        1.4002854225   -0.0361489475   -1.5721227905
C        0.1783425822    0.3728628452   -1.4479100881
H        0.7536264517    2.1627588189   -0.3190352027
H        0.7252704386    1.3471209015    1.8694350628
H        0.0887327393   -0.7526150634    2.6596674843
H        2.2715284711   -0.5417354855   -1.9396524988
H       -0.7392867972    0.2298318215   -2.0200940738
13   
Iteration 4 Energy -340.95149594
C       -1.6984354156   -1.3234410862    0.0064578319
N       -2.3588783986   -1.3621435354   -0.9618062139
C        0.3791616085    1.1509242203   -0.1820891188
C        0.2924834004    0.7025496788    1.1088140521
C       -0.2381471179   -0.5290769574    1.6431401112
N       -1.0596167832   -1.4165375965    1.1637315088
C        1.4045929480   -0.0403387216   -1.5759427065
C        0.1847378615    0.3725922929   -1.4435861850
H        0.7557476649    2.1632144690   -0.3155257997
H        0.7142514455    1.3527649172    1.8732724039
H        0.0903000884   -0.7535795916    2.6601251758
H        2.2664995941   -0.5501717745   -1.9587762713
H       -0.7326968961    0.2332436850   -2.0178147886
13   
Iteration 5 Energy -340.95229956
C       -1.6972308721   -1.3232372850    0.0069080857
N       -2.3564238275   -1.3633746449   -0.9621824907
C        0.3726862596    1.1554958636   -0.1757343716
C        0.2881561980    0.7065437234    1.1116704915
C       -0.2389310805   -0.5289318662    1.6447451278
N       -1.0596592621   -1.4159491608    1.1651951439
C        1.4121074997   -0.0467398116   -1.5808059853
C        0.1924438521    0.3732891715   -1.4374368388
H        0.7518422520    2.1682084603   -0.3089576241
H        0.7023196209    1.3598468876    1.8785119496
H        0.0914881568   -0.7550199844    2.6606140705
H        2.2608920001   -0.5660637281   -1.9896146535
H       -0.7196907969    0.2359323745   -2.0129129050
13   
Iteration 6 Energy -340.95233418
C       -1.6971098474   -1.3231754987    0.0068644113
N       -2.3561928406   -1.3633548750   -0.9622557164
C        0.3726681898    1.1556477048   -0.1755075645
C        0.2881152355    0.7067071531    1.1118013061
C       -0.2389199161   -0.5289175848    1.6448101401
N       -1.0596062897   -1.4158719184    1.1652408368
C        1.4125587157   -0.0470270852   -1.5809032488
C        0.1930728733    0.3732802374   -1.4371711757
H        0.7517178724    2.1681410884   -0.3086891562
H        0.7019637305    1.3599761983    1.8786493245
H        0.0915429814   -0.7550234983    2.6606969004
H        2.2601001415   -0.5662887094   -1.9902655954
H       -0.7199108463    0.2359067878   -2.0132704620
13   
Iteration 7 Energy -340.95238221
C       -1.6969825281   -1.3231211336    0.0068366071
N       -2.3559398959   -1.3633707605   -0.9623249893
C        0.3724938635    1.1558825160   -0.1751660052
C        0.2879689075    0.7069439501    1.1119813771
C       -0.2389335984   -0.5289081943    1.6449038563
N       -1.0595613266   -1.4157926641    1.1653160492
C        1.4130974287   -0.0474163397   -1.5810985571
C        0.1938064544    0.3732799097   -1.4368006989
H        0.7514877846    2.1682267944   -0.3083128617
H        0.7013650693    1.3602585592    1.8789054527
H        0.0916187304   -0.7550557981    2.6607785977
H        2.2592997386   -0.5668985038   -1.9916107069
H       -0.7197206280    0.2359716645   -2.0134081210
13   
Iteration 8 Energy -340.95244948
C       -1.6968265371   -1.3230591067    0.0068117205
N       -2.3556205797   -1.3634115327   -0.9624078447
C        0.3721890250    1.1562145936   -0.1746820833
C        0.2877222151    0.7072786832    1.1122300679
C       -0.2389673608   -0.5289018105    1.6450345234
N       -1.0595124380   -1.4156943821    1.1654247778
C        1.4137958648   -0.0479492179   -1.5813935746
C        0.1947658069    0.3732832584   -1.4362911223
H        0.7511181646    2.1684448484   -0.3077942713
H        0.7004910586    1.3606941095    1.8792977250
H        0.0917214928   -0.7551117583    2.6608755669
H        2.2583249809   -0.5678957726   -1.9936967806
H       -0.7192016931    0.2361080878   -2.0134087047
13   
Iteration 9 Energy -340.95254475
C       -1.6966252380   -1.3229846058    0.0067908382
N       -2.3552028113   -1.3634850783   -0.9625125111
C        0.3717117652    1.1566819162   -0.1740006774
C        0.2873412736    0.7077489445    1.1125760107
C       -0.2390254442   -0.5288975117    1.6452176812
N       -1.0594563244   -1.4155685720    1.1655796355
C        1.4147341240   -0.0486885031   -1.5818247259
C        0.1960469571    0.3732915119   -1.4355834406
H        0.7505621906    2.1688344366   -0.3070757991
H        0.6992340950    1.3613404620    1.8798755216
H        0.0918620145   -0.7552008065    2.6609964510
H        2.2570713148   -0.5694116907   -1.9967907584
H       -0.7182539169    0.2363394969   -2.0132482258
13   
Iteration 10 Energy -340.95268061
C       -1.6963923198   -1.3229129813    0.0068080729
N       -2.3547145499   -1.3636265443   -0.9626304126
C        0.3709271916    1.1573275988   -0.1730531760
C        0.2867146313    0.7083959944    1.1130513119
C       -0.2391287164   -0.5288981448    1.6454717553
N       -1.0594189324   -1.4154324107    1.1657934758
C        1.4159417712   -0.0496880125   -1.5824575330
C        0.1975950115    0.3733313046   -1.4346325716
H        0.7496754404    2.1696311732   -0.3061083072
H        0.6973994394    1.3623460666    1.8807579284
H        0.0920399293   -0.7553649890    2.6611180158
H        2.2556601443   -0.5718593285   -2.0015703732
H       -0.7162990404    0.2367502734   -2.0125481864
13   
Iteration 11 Energy -340.95287562
C       -1.6959982501   -1.3227595125    0.0067684696
N       -2.3538860966   -1.3637657739   -0.9628446242
C        0.3700117516    1.1582340742   -0.1717093587
C        0.2859251557    0.7093404459    1.1137542795
C       -0.2392444583   -0.5288939528    1.6458399648
N       -1.0593120395   -1.4151824204    1.1660959140
C        1.4177854810   -0.0511452414   -1.5832787592
C        0.2001545446    0.3733473744   -1.4332379264
H        0.7483938869    2.1705384153   -0.3046964508
H        0.6948720739    1.3636458199    1.8819656143
H        0.0923044820   -0.7555466153    2.6613577974
H        2.2531638882   -0.5750457452   -2.0079604575
H       -0.7141704193    0.2372331319   -2.0120544628
13   
Iteration 12 Energy -340.95313764
C       -1.6956652138   -1.3227166117    0.0069631298
N       -2.3532267045   -1.3641447138   -0.9630030735
C        0.3682326865    1.1594227177   -0.1699384249
C        0.2844650759    0.7105118986    1.1146534462
C       -0.2394694054   -0.5288942430    1.6463293278
N       -1.0593660688   -1.4150593221    1.1664809363
C        1.4199266655   -0.0529884761   -1.5845289242
C        0.2022898142    0.3735334523   -1.4315250042
H        0.7464284735    2.1728082948   -0.3029672478
H        0.6910833881    1.3659178576    1.8838590094
H        0.0925800800   -0.7560083877    2.6614511209
H        2.2512534373   -0.5806350755   -2.0184114131
H       -0.7085322285    0.2382526088   -2.0093628827
13   
Iteration 13 Energy -340.95353344
C       -1.6948427644   -1.3223910729    0.0068429614
N       -2.3515092480   -1.3643730301   -0.9634414034
C        0.3666938221    1.1611215283   -0.1674206139
C        0.2830658266    0.7123146374    1.1160147761
C       -0.2396450647   -0.5288815927    1.6470455862
N       -1.0591032107   -1.4145413563    1.1670681059
C        1.4235797372   -0.0558239308   -1.5859990337
C        0.2075252109    0.3734742863   -1.4287825882
H        0.7439984327    2.1742904449   -0.3002789214
H        0.6863318830    1.3682618178    1.8860892559
H        0.0931040309   -0.7563011482    2.6619822277
H        2.2458560383   -0.5863379515   -2.0301126996
H       -0.7050546939    0.2391873677   -2.0090076529
13   
Iteration 14 Energy -340.95412117
C       -1.6935798187   -1.3218972685    0.0067434492
N       -2.3489690861   -1.3646902485   -0.9641085035
C        0.3645575665    1.1635864756   -0.1637374031
C        0.2809166833    0.7149252654    1.1181320602
C       -0.2398204421   -0.5288109645    1.6481559459
N       -1.0587466991   -1.4138387826    1.1679046762
C        1.4292473970   -0.0600514953   -1.5879913918
C        0.2149805690    0.3734884513   -1.4246857503
H        0.7402161674    2.1767942214   -0.2962809476
H        0.6789602227    1.3719730330    1.8895058114
H        0.0938419397   -0.7568483138    2.6627746799
H        2.2376326060   -0.5952055175   -2.0481986828
H       -0.6992371057    0.2405751438   -2.0082139437
13   
Iteration 15 Energy -340.95413078
C       -1.6935775008   -1.3218998459    0.0067512987
N       -2.3489594328   -1.3647055209   -0.9641097847
C        0.3644965457    1.1636167205   -0.1636892984
C        0.2808621006    0.7149581623    1.1181574874
C       -0.2398308439   -0.5288142986    1.6481694878
N       -1.0587517101   -1.4138391339    1.1679156642
C        1.4292864973   -0.0600974049   -1.5880267055
C        0.2150274053    0.3734923775   -1.4246433187
H        0.7401341961    2.1768970020   -0.2962381869
H        0.6788404163    1.3720495709    1.8895738437
H        0.0938480072   -0.7568629187    2.6627720784
H        2.2376046439   -0.5954126838   -2.0485670239
H       -0.6989803250    0.2406179734   -2.0080655422
13   
Iteration 16 Energy -340.95414471
C       -1.6935622512   -1.3218969715    0.0067578685
N       -2.3489260372   -1.3647214405   -0.9641178670
C        0.3644249275    1.1636666278   -0.1636127926
C        0.2807947465    0.7150111670    1.1182006915
C       -0.2398404450   -0.5288157417    1.6481922497
N       -1.0587527099   -1.4138328370    1.1679329511
C        1.4293791304   -0.0601795590   -1.5880761070
C        0.2151388746    0.3734964173   -1.4245659946
H        0.7400269679    2.1770089543   -0.2961626356
H        0.6786646919    1.3721519360    1.8896651602
H        0.0938603929   -0.7568814750    2.6627777290
H        2.2374949472   -0.5956752379   -2.0490581513
H       -0.6987032356    0.2406681600   -2.0079331018
13   
Iteration 17 Energy -340.95416432
C       -1.6935385838   -1.3218916040    0.0067662607
N       -2.3488754384   -1.3647425849   -0.9641305355
C        0.3643274843    1.1637378393   -0.1635037032
C        0.2807016792    0.7150868513    1.1182629101
C       -0.2398528831   -0.5288172278    1.6482249285