13   
Frame  77 IRC: Energy =  -340.9899400000 ; +1.5487 kcal/mol
C       -1.7104945160   -1.3578085495    0.0043123850
N       -2.3923983013   -1.4246920494   -0.9545742402
C        0.5797640439    1.0528976902   -0.3278284351
C        0.3969720968    0.6052561940    1.0590691946
C       -0.2222072361   -0.5148371407    1.6310880913
N       -1.0777993905   -1.4160891928    1.1503334954
C        1.2820941780    0.1335872859   -1.3524388714
C        0.0354360974    0.3675991310   -1.5728108013
H        0.8125538636    2.1186256031   -0.3889952542
H        0.9058973718    1.2324502704    1.7913218877
H        0.0273410101   -0.6970058477    2.6761143123
H        2.2321246742   -0.3259422762   -1.5733014944
H       -0.8692838918    0.2259588816   -2.1422902698
13   
Frame   0 IRC: Energy =  -340.9924080000 ; +0.0000 kcal/mol
C       -1.7387439105   -1.2864595209    0.0413887410
N       -2.4666924942   -1.2676187305   -0.8754282684
C        0.4141674690    1.1405896597   -0.1692466578
C        0.2117012098    0.7409869936    1.1046232733
C       -0.1969481427   -0.5672482563    1.6161231305
N       -1.0106391709   -1.4535924991    1.1431904640
C        1.3345534489   -0.2848906425   -1.9569746819
C        0.3057419285    0.3364478984   -1.4211404729
H        0.7464496414    2.1700078113   -0.3074940647
H        0.4588493360    1.4514196532    1.8927263984
H        0.2307991312   -0.8319577546    2.5853524854
H        2.3835850564   -0.4488062605   -1.7469087789
H       -0.6728235027    0.3011216476   -1.9062115678
