3    
Image 11/11, Energy =   -92.3540601665 (+0.000 kcal/mol)
C        0.0194876257    0.0214346630   -0.0000000000
N       -0.7454621472   -0.8199441009    0.0000000000
H        0.7259745215    0.7985094380   -0.0000000000
