3    
Iteration 0 Energy -92.35406017
C        0.0194876257    0.0214346630   -0.0000000000
N       -0.7454621472   -0.8199441009    0.0000000000
H        0.7259745215    0.7985094380   -0.0000000000
3    
Iteration 1 Energy -92.35406017
C        0.0194880746    0.0214351856    0.0000000000
N       -0.7454619479   -0.8199438742    0.0000000000
H        0.7259738733    0.7985086887    0.0000000000
