13   
Iteration 1 Energy -340.92257148
C       -1.7080016517    2.6146171948   -0.2533342765
N       -1.0690846622    1.7170337569    0.1652374023
C        0.8170758189    0.2999859137   -0.4256945310
C       -0.2602282168    0.6391540197    0.6269204899
C       -1.1016092383   -0.5787902577    1.0167530574
N       -2.3425868512   -0.6783507099    0.9212963859
C        1.3509262125   -1.0900651870   -0.6315676183
C        0.5569046442   -0.6501325734   -1.5579453369
H        1.4702541265    1.1640024156   -0.5873682080
H        0.2443082740    0.9763562725    1.5444541915
H       -0.5150927481   -1.4184573609    1.4220864728
H        1.9985748400   -1.8629108916   -0.2445722688
H        0.0524638378   -0.7823145028   -2.5029280583
13   
Iteration 0 Energy -340.92257145
C       -1.7078533503    2.6144673125   -0.2531822656
N       -1.0689695789    1.7169682995    0.1656151440
C        0.8168546623    0.2999954425   -0.4255028724
C       -0.2602444967    0.6390318652    0.6273515897
C       -1.1015983744   -0.5789756693    1.0171951566
N       -2.3426486397   -0.6786754211    0.9228494202
C        1.3509229739   -1.0899223002   -0.6316893909
C        0.5566707245   -0.6499975486   -1.5578683775
H        1.4698814816    1.1641331209   -0.5871657885
H        0.2445023320    0.9761831365    1.5447936583
H       -0.5148266465   -1.4187289203    1.4219191998
H        1.9987949190   -1.8626978094   -0.2449288551
H        0.0521275555   -0.7821072034   -2.5028056322
13   
Iteration 42 Energy -340.92257127
C       -1.7111738118    2.6120043681   -0.2544405581
N       -1.0695855048    1.7162482401    0.1641631730
C        0.8177555651    0.2997287667   -0.4249320609
C       -0.2599972837    0.6394047901    0.6270169728
C       -1.1007366034   -0.5785840761    1.0182081812
N       -2.3417691021   -0.6787722768    0.9243263435
C        1.3495549224   -1.0909653752   -0.6321473766
C        0.5572077136   -0.6484513501   -1.5587094544
H        1.4725409373    1.1628408898   -0.5849046573
H        0.2443310492    0.9777965393    1.5442280799
H       -0.5135647132   -1.4177201151    1.4237000847
H        1.9955887124   -1.8653659595   -0.2455693864
H        0.0534616811   -0.7784901365   -2.5043583552
13   
Iteration 41 Energy -340.92256731
C       -1.7207151766    2.6076879236   -0.2492504964
N       -1.0699981155    1.7160042543    0.1632919155
C        0.8193175780    0.2992631643   -0.4255564956
C       -0.2588447207    0.6401176217    0.6255385282
C       -1.1005386071   -0.5767680670    1.0181894664
N       -2.3420839974   -0.6738096617    0.9270797571
C        1.3490059969   -1.0924710773   -0.6320179615
C        0.5594628411   -0.6482511028   -1.5601273590
H        1.4761986548    1.1610784640   -0.5841238777
H        0.2458417480    0.9792580291    1.5423086220
H       -0.5143615588   -1.4171056091    1.4223798797
H        1.9928579440   -1.8681166467   -0.2442820254
H        0.0574709754   -0.7772129877   -2.5068489669
13   
Iteration 40 Energy -340.92255753
C       -1.7310157182    2.6038414535   -0.2433635982
N       -1.0703660937    1.7157454698    0.1617354846
C        0.8211088904    0.2986955715   -0.4260998956
C       -0.2576849898    0.6408803719    0.6237991736
C       -1.1000791838   -0.5749546365    1.0181180694
N       -2.3420649646   -0.6688361379    0.9295903843
C        1.3485120336   -1.0941911741   -0.6318870772
C        0.5617743099   -0.6480662535   -1.5614335765
H        1.4800621337    1.1591121466   -0.5831920984
H        0.2470074516    0.9810126365    1.5401844051
H       -0.5150549998   -1.4165765894    1.4214441623
H        1.9899564088   -1.8712780108   -0.2430783348
H        0.0614582839   -0.7757105429   -2.5092361123
13   
Iteration 39 Energy -340.92254524
C       -1.7382849964    2.6009653354   -0.2382878061
N       -1.0707036131    1.7147196273    0.1588581648
C        0.8230069755    0.2980567517   -0.4258234610
C       -0.2567998658    0.6412936402    0.6223857482
C       -1.0998059587   -0.5737352903    1.0178341788
N       -2.3421259660   -0.6649012397    0.9311326562
C        1.3485580637   -1.0955572036   -0.6319437891
C        0.5631466564   -0.6477758942   -1.5617846318
H        1.4835224738    1.1575451471   -0.5820720187
H        0.2469688485    0.9831625205    1.5386912766
H       -0.5155211206   -1.4160328583    1.4203984530
H        1.9886761647   -1.8737059315   -0.2430293910
H        0.0629759000   -0.7743602998   -2.5097783936
13   
Iteration 38 Energy -340.92253495
C       -1.7418638596    2.5995473850   -0.2353674986
N       -1.0701668021    1.7136916064    0.1559653996
C        0.8240048362    0.2976142467   -0.4253423220
C       -0.2561871788    0.6415271310    0.6220027234
C       -1.0995367500   -0.5731497017    1.0178918209
N       -2.3421203696   -0.6625058114    0.9319024568
C        1.3487299837   -1.0961451250   -0.6320459097
C        0.5636114384   -0.6475971823   -1.5617652448
H        1.4848228371    1.1566473627   -0.5814004858
H        0.2464491829    0.9850296815    1.5382173949
H       -0.5159196826   -1.4166844572    1.4198328601
H        1.9882969098   -1.8748111787   -0.2433751315
H        0.0634930167   -0.7734896523   -2.5099350770
13   
Iteration 37 Energy -340.92252590
C       -1.7435841966    2.5988612759   -0.2337898797
N       -1.0697835465    1.7130803967    0.1538359674
C        0.8242071191    0.2973570849   -0.4252720973
C       -0.2556506906    0.6411015621    0.6227868280
C       -1.0994938571   -0.5732886746    1.0178858566
N       -2.3419415072   -0.6616066356    0.9321603218
C        1.3487635973   -1.0964421336   -0.6321945851
C        0.5637419879   -0.6477072790   -1.5619057658
H        1.4851513948    1.1569941490   -0.5812843279
H        0.2469460984    0.9860431501    1.5387216798
H       -0.5167267745   -1.4160132674    1.4192055464
H        1.9880294508   -1.8754560662   -0.2434187548
H        0.0639544863   -0.7732492576   -2.5101498030
13   
Iteration 36 Energy -340.92241254
C       -1.7807566076    2.5742015227   -0.2189835122
N       -1.0678875545    1.7147613736    0.1580093343
C        0.8308071041    0.2970011592   -0.4269386332
C       -0.2490815446    0.6464351181    0.6192047620
C       -1.0989440600   -0.5642757097    1.0150265231
N       -2.3430748346   -0.6381882510    0.9334166492
C        1.3480457191   -1.1004296503   -0.6305239840
C        0.5692030187   -0.6479252101   -1.5635599624
H        1.4982302409    1.1511371664   -0.5811379246
H        0.2559112612    0.9875542535    1.5349322684
H       -0.5223850788   -1.4162456432    1.4097129142
H        1.9822190131   -1.8822419465   -0.2393927576
H        0.0713268851   -0.7721098780   -2.5131846910
13   
Iteration 35 Energy -340.92210286
C       -1.8309396899    2.5337901864   -0.2042661532
N       -1.0596589984    1.7205116553    0.1598214353
C        0.8400602020    0.2961805209   -0.4278723685
C       -0.2369780277    0.6489907408    0.6195245507
C       -1.0985543669   -0.5534553977    1.0118328018
N       -2.3436625875   -0.6073468302    0.9308818037
C        1.3487132775   -1.1050381771   -0.6311147382
C        0.5743691725   -0.6471626848   -1.5651263119
H        1.5130276525    1.1463026556   -0.5812904377
H        0.2690964544    0.9906078075    1.5344381645
H       -0.5353354806   -1.4144210668    1.4037274182
H        1.9750465614   -1.8921569100   -0.2377862077
H        0.0784293927   -0.7671281951   -2.5161889708
13   
Iteration 34 Energy -340.92162013
C       -1.8752888259    2.4927641412   -0.1853123425
N       -1.0524054904    1.7230843660    0.1636351788
C        0.8485675596    0.2955701091   -0.4286863923
C       -0.2274705554    0.6555044717    0.6170367221
C       -1.0995761917   -0.5415197886    1.0075258102
N       -2.3456250437   -0.5763078552    0.9251964193
C        1.3491821161   -1.1088546389   -0.6299494931
C        0.5789886408   -0.6473670392   -1.5656654359
H        1.5283644947    1.1410907660   -0.5812904400
H        0.2823261995    0.9912070462    1.5323798319
H       -0.5477893781   -1.4106140712    1.3941143810
H        1.9725092796   -1.8982603046   -0.2362604665
H        0.0818307570   -0.7666228978   -2.5161427866
13   
Iteration 33 Energy -340.92101607
C       -1.9143173964    2.4531366281   -0.1684224037
N       -1.0441409144    1.7312273329    0.1650487084
C        0.8562260381    0.2956260715   -0.4299436202
C       -0.2166554657    0.6583428833    0.6173883448
C       -1.1000045332   -0.5306801338    1.0031070170
N       -2.3464426710   -0.5488422367    0.9191746102
C        1.3509303557   -1.1116264749   -0.6299319017
C        0.5825027346   -0.6476934860   -1.5657429165
H        1.5385230929    1.1373170227   -0.5840816831
H        0.2929945321    0.9930513906    1.5322687626
H       -0.5600909609   -1.4107762757    1.3886858129
H        1.9680116797   -1.9045268149   -0.2339046309
H        0.0860770706   -0.7648816024   -2.5170651134
13   
Iteration 32 Energy -340.92024309
C       -1.9507581151    2.4104722459   -0.1496178411
N       -1.0352958010    1.7346253620    0.1679679481
C        0.8635174528    0.2950700754   -0.4305624986
C       -0.2079329563    0.6633753087    0.6158604430
C       -1.1016516772   -0.5199271366    0.9986348288
N       -2.3482465738   -0.5209501009    0.9114564714
C        1.3520280925   -1.1144610163   -0.6292846897
C        0.5856226353   -0.6482327014   -1.5656791916
H        1.5512860003    1.1343878294   -0.5850567012
H        0.3046443082    0.9936755473    1.5316959887
H       -0.5746231219   -1.4041289507    1.3803718481
H        1.9678313446   -1.9089130684   -0.2335759238
H        0.0871919737   -0.7653190896   -2.5156296958
13   
Iteration 31 Energy -340.91934367
C       -1.9816389491    2.3674279012   -0.1322045077
N       -1.0275388484    1.7428772539    0.1687684475
C        0.8701498545    0.2955460553   -0.4313651416
C       -0.1985160156    0.6677179706    0.6158297375
C       -1.1034515342   -0.5084583911    0.9942170805
N       -2.3499129913   -0.4943040538    0.9034379845
C        1.3539510267   -1.1160526262   -0.6290968932
C        0.5882816285   -0.6482547681   -1.5652277595
H        1.5597153599    1.1304845886   -0.5873744093
H        0.3144983469    0.9945961880    1.5311438943
H       -0.5861028401   -1.4044963550    1.3758178316
H        1.9651709118   -1.9128964257   -0.2320657703
H        0.0890076124   -0.7645130328   -2.5152995080
13   
Iteration 30 Energy -340.91825337
C       -2.0135902205    2.3222110231   -0.1137598520
N       -1.0165883611    1.7489461424    0.1699688308
C        0.8769514318    0.2953767823   -0.4326293537
C       -0.1889526939    0.6694664908    0.6159674924
C       -1.1046822340   -0.4983027230    0.9901135572
N       -2.3508207267   -0.4684312439    0.8959061317
C        1.3563906874   -1.1180265521   -0.6293654099
C        0.5902319452   -0.6492203563   -1.5646049752
H        1.5687326385    1.1311061658   -0.5916153727
H        0.3253686901    0.9951624102    1.5324916786
H       -0.6046966333   -1.3974905715    1.3692422308
H        1.9642999741   -1.9172792167   -0.2308429109
H        0.0909690645   -0.7638440464   -2.5142910608
13   
Iteration 29 Energy -340.91725553
C       -2.0262323398    2.2873462110   -0.0988344285
N       -1.0138882022    1.7511367133    0.1720650443
C        0.8814175416    0.2954845860   -0.4314080065
C       -0.1847078117    0.6755267471    0.6129761068
C       -1.1088690099   -0.4879084737    0.9838342341
N       -2.3547996159   -0.4466229736    0.8861250560
C        1.3554582928   -1.1191314774   -0.6283087827
C        0.5928228826   -0.6476134749   -1.5649489047
H        1.5785088517    1.1218872436   -0.5871108803
H        0.3274853360    0.9977484615    1.5289699225
H       -0.6095449551   -1.3971573175    1.3701064086
H        1.9709349994   -1.9147413002   -0.2362936432
H        0.0850275925   -0.7662806404   -2.5105911401
13   
Iteration 28 Energy -340.91588247
C       -2.0583782762    2.2357479559   -0.0809598529
N       -0.9987200587    1.7632783116    0.1700680330
C        0.8865131468    0.2957940602   -0.4333998454
C       -0.1754224891    0.6786875516    0.6149907680
C       -1.1099485989   -0.4788976302    0.9826823898
N       -2.3551535195   -0.4214002323    0.8801123339
C        1.3600135511   -1.1195896181   -0.6288095895
C        0.5931906970   -0.6497354403   -1.5632139709
H        1.5820531188    1.1282567823   -0.5948689141
H        0.3439806079    0.9923642200    1.5328127813
H       -0.6299447791   -1.3890443023    1.3582651350
H        1.9651315910   -1.9208850092   -0.2300997926
H        0.0902985710   -0.7649023445   -2.5109984894
13   
Iteration 27 Energy -340.91380900
C       -2.0818730653    2.1706939223   -0.0547608007
N       -0.9873648805    1.7740677969    0.1698614738
C        0.8937366887    0.2966240575   -0.4343748837
C       -0.1639277918    0.6798004593    0.6152464852
C       -1.1130521114   -0.4635941388    0.9767242001
N       -2.3569108174   -0.3865422065    0.8685388673
C        1.3627155777   -1.1205401303   -0.6292899753
C        0.5953938867   -0.6496247553   -1.5624028038
H        1.5898303946    1.1249229994   -0.5998128116
H        0.3497729581    0.9990585134    1.5325495763
H       -0.6522381719   -1.3884144946    1.3552583243
H        1.9668560579   -1.9224890935   -0.2313376110
H        0.0906748368   -0.7642886251   -2.5096190545
13   
Iteration 26 Energy -340.91162670
C       -2.1010204746    2.1112273574   -0.0339313494
N       -0.9760871940    1.7805027353    0.1690774596
C        0.8972990986    0.2962966112   -0.4336251404
C       -0.1605546507    0.6896698390    0.6117056090
C       -1.1193959737   -0.4535486218    0.9703986808
N       -2.3618253142   -0.3544803468    0.8555049777
C        1.3633978137   -1.1206766876   -0.6284083699
C        0.5971986276   -0.6489718999   -1.5626915898
H        1.5992372002    1.1231609084   -0.5952045194
H        0.3631140185    0.9892190281    1.5314568354
H       -0.6667620175   -1.3746875271    1.3522995653
H        1.9746986102   -1.9199598472   -0.2352371575
H        0.0843138181   -0.7680772443   -2.5047640153
13   
Iteration 25 Energy -340.90984364
C       -2.1114244810    2.0635342371   -0.0143182940
N       -0.9667900007    1.7929693338    0.1662646573
C        0.9017555214    0.2977526375   -0.4356406299
C       -0.1508981297    0.6863289861    0.6145133839
C       -1.1190788074   -0.4428539102    0.9694749178
N       -2.3605341359   -0.3321396950    0.8505789350
C        1.3670912928   -1.1204793936   -0.6295132320
C        0.5976945267   -0.6498238978   -1.5612002377
H        1.5983710192    1.1244796442   -0.6056062160
H        0.3637260404    0.9993435481    1.5331403343
H       -0.6865345622   -1.3809712724    1.3474516454
H        1.9701003139   -1.9232606125   -0.2316359830
H        0.0901349645   -0.7652053007   -2.5069282948
13   
Iteration 24 Energy -340.90836744
C       -2.1190264885    2.0269951646   -0.0010875861
N       -0.9602411148    1.7978161530    0.1650257955
C        0.9034275378    0.2978565994   -0.4357011290
C       -0.1485195471    0.6902413007    0.6131859664
C       -1.1220858498   -0.4371920152    0.9664556097
N       -2.3623497302   -0.3137310789    0.8436200421
C        1.3677732537   -1.1202948615   -0.6293055094
C        0.5984404158   -0.6496497968   -1.5613044723
H        1.6020231575    1.1247363966   -0.6049406084
H        0.3698277927    0.9959515199    1.5330034353
H       -0.6970249025   -1.3741461516    1.3456553229
H        1.9732966147   -1.9222072374   -0.2329148566
H        0.0880724229   -0.7667016881   -2.5051110237
13   
Iteration 23 Energy -340.90726201
C       -2.1229592427    2.0008518068    0.0090297242
N       -0.9559622427    1.8026553238    0.1637858203
C        0.9050063836    0.2983211256   -0.4361731974
C       -0.1455535564    0.6911040189    0.6131761800
C       -1.1232465306   -0.4323423646    0.9649935406
N       -2.3627444792   -0.3008449446    0.8395391798
C        1.3688141547   -1.1200878060   -0.6294571637
C        0.5988929314   -0.6496666759   -1.5610617642
H        1.6030996891    1.1248274579   -0.6068999772
H        0.3718300389    0.9972531137    1.5330926731
H       -0.7057309917   -1.3734480726    1.3442613828
H        1.9737106997   -1.9222570750   -0.2327908816
H        0.0884567081   -0.7666916033   -2.5049145305
13   
Iteration 22 Energy -340.90646138
C       -2.1255359342    1.9822273134    0.0161085504
N       -0.9529950754    1.8057167916    0.1629270511
C        0.9059455933    0.2985662023   -0.4364337001
C       -0.1438443643    0.6920993153    0.6129601534
C       -1.1242675027   -0.4291980426    0.9638777278
N       -2.3631583446   -0.2916911822    0.8364816965
C        1.3694196746   -1.1199324101   -0.6295143544
C        0.5992084799   -0.6496595376   -1.5609863377
H        1.6041053966    1.1250578235   -0.6077728955
H        0.3737124229    0.9973589493    1.5331349808
H       -0.7117594404   -1.3718467441    1.3432728865
H        1.9744204487   -1.9220918760   -0.2329117192
H        0.0883622077   -0.7669322982   -2.5045630534
13   
Iteration 21 Energy -340.90588824
C       -2.1270821934    1.9690420396    0.0211712004
N       -0.9509844221    1.8079692093    0.1622869956
C        0.9066247461    0.2987816415   -0.4366489113
C       -0.1425703233    0.6926726026    0.6128658816
C       -1.1249199478   -0.4269005163    0.9631335617
N       -2.3633853110   -0.2852041541    0.8343669844
C        1.3698797557   -1.1198048557   -0.6295731973
C        0.5994308780   -0.6496511835   -1.5609165587
H        1.6046687431    1.1251787832   -0.6085464507
H        0.3748218612    0.9977238046    1.5331483971
H       -0.7160878217   -1.3711099442    1.3426390745
H        1.9747979710   -1.9219969542   -0.2329354668
H        0.0884196262   -0.7670261682   -2.5044105242
13   
Iteration 20 Energy -340.90548035
C       -2.1281132150    1.9596884243    0.0247555742
N       -0.9495810648    1.8095129876    0.1618369265
C        0.9070794585    0.2989221611   -0.4367988322
C       -0.1417106747    0.6930944443    0.6127831194
C       -1.1253880186   -0.4253191211    0.9626122922
N       -2.3635468348   -0.2806243213    0.8328646452
C        1.3701934018   -1.1197147077   -0.6296157213
C        0.5995832289   -0.6496493952   -1.5608801341
H        1.6050878905    1.1253124166   -0.6090625981
H        0.3756453968    0.9979152928    1.5331697189
H       -0.7191819632   -1.3704277917    1.3421635576
H        1.9751078100   -1.9219194299   -0.2329677744
H        0.0884381469   -0.7671166550   -2.5042797878
13   
Iteration 19 Energy -340.90519097
C       -2.1287665317    1.9530742807    0.0273021571
N       -0.9486144023    1.8106258349    0.1615123758
C        0.9074072050    0.2990330019   -0.4369099361
C       -0.1410854362    0.6933576474    0.6127396827
C       -1.1257025356   -0.4241763830    0.9622503763
N       -2.3636447220   -0.2773792044    0.8318106876
C        1.3704230094   -1.1196475379   -0.6296473150
C        0.5996951461   -0.6496456885   -1.5608486055
H        1.6053461262    1.1253867062   -0.6094592850
H        0.3761692904    0.9981311102    1.5331774776
H       -0.7213837563   -1.3700616304    1.3418565570
H        1.9752959898   -1.9218587363   -0.2329813300
H        0.0884741792   -0.7671650960   -2.5042218562
13   
Iteration 18 Energy -340.90498602
C       -2.1292311841    1.9483945523    0.0291037273
N       -0.9479123530    1.8113938200    0.1612898432
C        0.9076304648    0.2991086475   -0.4369886885
C       -0.1406553202    0.6935442633    0.6127051773
C       -1.1259349261   -0.4233785376    0.9619910255
N       -2.3637085209   -0.2750869949    0.8310629248
C        1.3705773990   -1.1195999077   -0.6296743440
C        0.5997710422   -0.6496424204   -1.5608350876
H        1.6055323429    1.1254504152   -0.6097273801
H        0.3765461797    0.9982785806    1.5331743716
H       -0.7229508901   -1.3697636420    1.3416353994
H        1.9754512784   -1.9218221421   -0.2329983495
H        0.0884980495   -0.7672023294   -2.5041576331
13   
Iteration 17 Energy -340.90484091
C       -2.1294787950    1.9452292085    0.0302978234
N       -0.9473881596    1.8120389107    0.1610889642
C        0.9078378033    0.2992437520   -0.4370295853
C       -0.1403350503    0.6937480441    0.6126892431
C       -1.1261642069   -0.4226264885    0.9617506933
N       -2.3637569183   -0.2733382205    0.8304784133
C        1.3706943631   -1.1195346287   -0.6296419953
C        0.5998703363   -0.6495888079   -1.5607880350
H        1.6054448580    1.1252299413   -0.6098249489
H        0.3767076561    0.9984597077    1.5330155560
H       -0.7237439339   -1.3703461065    1.3418323682
H        1.9754411725   -1.9216472779   -0.2329985479
H        0.0884844369   -0.7671937296   -2.5042889628
13   
Iteration 16 Energy -340.90474258
C       -2.1295234237    1.9427146797    0.0313654981
N       -0.9473845916    1.8123228758    0.1610322224
C        0.9078801173    0.2991401639   -0.4371077061
C       -0.1400750003    0.6935585886    0.6127136218
C       -1.1260430425   -0.4225620607    0.9617765593
N       -2.3637613392   -0.2725108325    0.8302732239
C        1.3707932136   -1.1195716364   -0.6297564500
C        0.5998335797   -0.6496881738   -1.5608210170
H        1.6059129211    1.1257254807   -0.6102750048
H        0.3769075252    0.9986349108    1.5333573575
H       -0.7251780832   -1.3689355272    1.3410573705
H        1.9756339653   -1.9219110685   -0.2330031099
H        0.0886177205   -0.7672430957   -2.5040315795
13   
Iteration 15 Energy -340.90327282
C       -2.1321096564    1.9092072988    0.0441112647
N       -0.9426140168    1.8176004706    0.1594113646
C        0.9093985453    0.2997749093   -0.4375323189
C       -0.1374123852    0.6954011097    0.6122601524
C       -1.1281682670   -0.4167211010    0.9595977189
N       -2.3643358327   -0.2556582372    0.8245213877
C        1.3717165430   -1.1191666120   -0.6297969611
C        0.6004909515   -0.6495018220   -1.5607881408
H        1.6070879752    1.1257127431   -0.6113272787
H        0.3798373692    0.9991393904    1.5328518830
H       -0.7356089687   -1.3673078022    1.3403471849
H        1.9770786212   -1.9210745551   -0.2334358242
H        0.0882526833   -0.7677314876   -2.5036394463
13   
Iteration 14 Energy -340.90226210
C       -2.1331608016    1.8855460705    0.0532673084
N       -0.9395751779    1.8216488270    0.1581040088
C        0.9103458708    0.3002378138   -0.4379512997
C       -0.1354722387    0.6963829470    0.6121524033
C       -1.1290850519   -0.4129329911    0.9585627588
N       -2.3644862709   -0.2439094921    0.8207799075
C        1.3726228720   -1.1188375110   -0.6299988447
C        0.6009038776   -0.6494680247   -1.5607320008
H        1.6076558292    1.1260565045   -0.6128549462
H        0.3812525484    1.0002618639    1.5329112244
H       -0.7432969000   -1.3665049722    1.3392487133
H        1.9773949394   -1.9209104315   -0.2332877517
H        0.0885140658   -0.7678962994   -2.5036204951
13   
Iteration 13 Energy -340.90168636
C       -2.1341258388    1.8723485833    0.0587186855
N       -0.9384352793    1.8227089727    0.1578735635
C        0.9102407562    0.2996587741   -0.4383767799
C       -0.1346694601    0.6960486156    0.6120701713
C       -1.1286399908   -0.4131170109    0.9588096339
N       -2.3644708777   -0.2394290220    0.8196204971
C        1.3730653252   -1.1189500267   -0.6307347210
C        0.6005987687   -0.6499726725   -1.5611226474
H        1.6100399058    1.1289888177   -0.6148861011
H        0.3825224117    1.0003488492    1.5345882390
H       -0.7503149027   -1.3581594085    1.3349634009
H        1.9785873405   -1.9225956392   -0.2331854380
H        0.0892154036   -0.7682045281   -2.5017575175
13   
Iteration 12 Energy -340.90129771
C       -2.1340128502    1.8619811763    0.0624030489
N       -0.9367803080    1.8254449953    0.1568501486
C        0.9112698348    0.3006788096   -0.4383965916
C       -0.1336144869    0.6973362442    0.6120242686
C       -1.1299551316   -0.4093409010    0.9575585356
N       -2.3645954305   -0.2322749009    0.8170583252
C        1.3735158910   -1.1185222263   -0.6302465234
C        0.6012955385   -0.6494540600   -1.5607250990
H        1.6083152037    1.1265675955   -0.6143350710
H        0.3827937236    1.0012206326    1.5329851731
H       -0.7512256498   -1.3650826732    1.3380698097
H        1.9778332807   -1.9207954672   -0.2331777876
H        0.0887739467   -0.7680849203   -2.5034872508
13   
Iteration 11 Energy -340.90096308
C       -2.1342536481    1.8533549115    0.0657868708
N       -0.9359256490    1.8267522870    0.1564137729
C        0.9115622131    0.3007802466   -0.4385871981
C       -0.1329456993    0.6975543661    0.6120058380
C       -1.1301896336   -0.4082175499    0.9572738822
N       -2.3645938738   -0.2281835554    0.8157814261
C        1.3738450106   -1.1184323900   -0.6303987324
C        0.6013868333   -0.6494995069   -1.5607532881
H        1.6087009300    1.1270254943   -0.6150143356
H        0.3834085599    1.0015769760    1.5331436368
H       -0.7543726844   -1.3639582971    1.3373352589
H        1.9780334129   -1.9209308576   -0.2331034584
H        0.0889577905   -0.7681478198   -2.5033026868
13   
Iteration 10 Energy -340.90073134
C       -2.1343860305    1.8473670433    0.0680989813
N       -0.9353058264    1.8277752230    0.1560430317
C        0.9118223532    0.3009304256   -0.4387192920
C       -0.1324517876    0.6977842622    0.6120052157
C       -1.1304154530   -0.4072567433    0.9570322424
N       -2.3645810545   -0.2251527049    0.8148249959
C        1.3740953227   -1.1183393451   -0.6304581165
C        0.6014893285   -0.6494952737   -1.5607333798
H        1.6087521110    1.1271543464   -0.6154105825
H        0.3838239050    1.0018212500    1.5331286886
H       -0.7563405454   -1.3638618287    1.3371340178
H        1.9780401005   -1.9208920500   -0.2330124561
H        0.0890711387   -0.7681603001   -2.5033523601
13   
Iteration 9 Energy -340.90057034
C       -2.1344581260    1.8430994229    0.0697560103
N       -0.9349232392    1.8284995488    0.1557697793
C        0.9119986002    0.3010208068   -0.4388300962
C       -0.1320890552    0.6979045792    0.6120194943
C       -1.1305426022   -0.4066280885    0.9568950688
N       -2.3645510264   -0.2230437138    0.8141784626
C        1.3742823608   -1.1182790624   -0.6305204190
C        0.6015442216   -0.6495132991   -1.5607243393
H        1.6088060122    1.1273481630   -0.6157518958
H        0.3841441831    1.0019723897    1.5331721244
H       -0.7578297502   -1.3636206557    1.3368946024
H        1.9780355185   -1.9209233068   -0.2329189683
H        0.0891964648   -0.7681624794   -2.5033588372
13   
Iteration 8 Energy -340.90045806
C       -2.1345148272    1.8400913983    0.0709142975
N       -0.9346547062    1.8290215093    0.1555605707
C        0.9121279488    0.3010907645   -0.4389136316
C       -0.1318307166    0.6980063929    0.6120286580
C       -1.1306391490   -0.4061733627    0.9568006046
N       -2.3645245963   -0.2215381618    0.8137188552
C        1.3744179090   -1.1182330363   -0.6305604657
C        0.6015826708   -0.6495277250   -1.5607139738
H        1.6088129662    1.1274934625   -0.6159836479
H        0.3843924813    1.0020309180    1.5331992910
H       -0.7588601026   -1.3634879460    1.3367475817
H        1.9780156518   -1.9209369727   -0.2328384142
H        0.0892880319   -0.7681629363   -2.5033787393
13   
Iteration 7 Energy -340.90037943
C       -2.1344919566    1.8379509435    0.0717421464
N       -0.9345466566    1.8294040366    0.1553924627
C        0.9122201139    0.3011335551   -0.4389862013
C       -0.1316336248    0.6980532685    0.6120460037
C       -1.1306978137   -0.4058677357    0.9567509385
N       -2.3644855256   -0.2204894474    0.8134117100
C        1.3745193879   -1.1182019272   -0.6305976300
C        0.6016005510   -0.6495511674   -1.5607063654
H        1.6088041029    1.1276600933   -0.6161764525
H        0.3845933024    1.0020384225    1.5332452932
H       -0.7596400435   -1.3633237039    1.3366035991
H        1.9779912685   -1.9209715861   -0.2327607349
H        0.0893804563   -0.7681604469   -2.5033837833
13   
Iteration 6 Energy -340.90030907
C       -2.1340757236    1.8361628146    0.0722382282
N       -0.9348782681    1.8296936917    0.1550094480
C        0.9122613995    0.3011649021   -0.4390614294
C       -0.1316811856    0.6987617399    0.6118099444
C       -1.1310738735   -0.4055218624    0.9566456832
N       -2.3644866173   -0.2193702806    0.8130073164
C        1.3745382015   -1.1181052229   -0.6305243333
C        0.6016103621   -0.6495683108   -1.5607041907
H        1.6085698166    1.1279200903   -0.6158118887
H        0.3852693101    1.0006751580    1.5332336775
H       -0.7597502121   -1.3630473794    1.3367339265
H        1.9781352407   -1.9207316157   -0.2326960059
H        0.0891751119   -0.7683594199   -2.5032993900
13   
Iteration 5 Energy -340.89999283
C       -2.1344816732    1.8272509237    0.0760894816
N       -0.9338379182    1.8315916378    0.1546682210
C        0.9128389863    0.3014603433   -0.4393850863
C       -0.1302771974    0.6974362329    0.6125226513
C       -1.1306615318   -0.4041923910    0.9565510068
N       -2.3641191347   -0.2153565074    0.8120350974
C        1.3751614816   -1.1180936749   -0.6308689392
C        0.6017248560   -0.6496660165   -1.5605910661
H        1.6086039548    1.1282961535   -0.6177925780
H        0.3850655062    1.0036587682    1.5334000457
H       -0.7641116599   -1.3635402289    1.3359640519
H        1.9774106068   -1.9213511697   -0.2322289876
H        0.0902972856   -0.7678197663   -2.5037829123
13   
Iteration 4 Energy -340.89976847
C       -2.1349437817    1.8209042008    0.0788561577
N       -0.9329078097    1.8328721740    0.1545206846
C        0.9132589612    0.3016817837   -0.4395884250
C       -0.1292760810    0.6964138511    0.6130452336
C       -1.1303468579   -0.4032384630    0.9564474220