13   
IRC reactant Energy -340.92257145
C       -1.7078533503    2.6144673125   -0.2531822656
N       -1.0689695789    1.7169682995    0.1656151440
C        0.8168546623    0.2999954425   -0.4255028724
C       -0.2602444967    0.6390318652    0.6273515897
C       -1.1015983744   -0.5789756693    1.0171951566
N       -2.3426486397   -0.6786754211    0.9228494202
C        1.3509229739   -1.0899223002   -0.6316893909
C        0.5566707245   -0.6499975486   -1.5578683775
H        1.4698814816    1.1641331209   -0.5871657885
H        0.2445023320    0.9761831365    1.5447936583
H       -0.5148266465   -1.4187289203    1.4219191998
H        1.9987949190   -1.8626978094   -0.2449288551
H        0.0521275555   -0.7821072034   -2.5028056322
13   
IRC product Energy -340.92501854
C       -2.1153093431    1.4221662208    0.2936537780
N       -0.9414200945    1.8523063917    0.1589945055
C        0.9271161738    0.3074562327   -0.4615270700
C       -0.1109717201    0.6896997190    0.5963500937
C       -1.1634852275   -0.3418853662    0.9376783914
N       -2.3653764369    0.0998704001    0.7628325965
C        1.4237315133   -1.1044211522   -0.6407001147
C        0.6324153845   -0.6667940714   -1.5700416513
H        1.6036981819    1.1445818828   -0.6569458468
H        0.4107447714    0.9970878172    1.5166315395
H       -0.9724486974   -1.3488192228    1.3029444809
H        2.0499500575   -1.8867701459   -0.2372275104
H        0.1149689993   -0.8148044010   -2.5060622061
