13   
Iteration 0 Energy -340.89779186
C       -2.1605393179    1.6117698644    0.3315746124
N       -0.9606837572    1.7705003596    0.2817729313
C        0.9124726410    0.3281119631   -0.4510611557
C       -0.0947765041    0.6433609791    0.6596286797
C       -1.0494577023   -0.4899721187    1.0286817749
N       -2.2938457058   -0.2985127084    0.9693373026
C        1.4692808292   -1.0497890199   -0.6888279578
C        0.6193135201   -0.6274025865   -1.5729205565
H        1.5404863511    1.2038320235   -0.6478024833
H        0.4548890682    0.9454255030    1.5617517757
H       -0.6679071563   -1.4580486629    1.3632254590
H        2.1562938386   -1.8079949317   -0.3419268137
H        0.0743447787   -0.7712573834   -2.4933925579
13   
Iteration 1 Energy -340.89785082
C       -2.1605834146    1.6106441175    0.3283675738
N       -0.9603669598    1.7718006115    0.2840542788
C        0.9129683778    0.3313722806   -0.4492684129
C       -0.0924018916    0.6472390279    0.6615996585
C       -1.0413241660   -0.4906338365    1.0211990081
N       -2.2865649332   -0.3033566460    0.9556775121
C        1.4614481127   -1.0503240149   -0.6831138132
C        0.6118709151   -0.6268027941   -1.5672770119
H        1.5435489486    1.2041013968   -0.6496835011
H        0.4547697815    0.9479269465    1.5662133646
H       -0.6516447467   -1.4578719237    1.3500982650
H        2.1445745722   -1.8104474704   -0.3331577260
H        0.0634201000   -0.7714742065   -2.4857239500
13   
Iteration 2 Energy -340.89787876
C       -2.1606951305    1.6075996812    0.3023707358
N       -0.9610056232    1.7765780952    0.2774553450
C        0.9125604659    0.3344311406   -0.4465249318
C       -0.0913729919    0.6568040777    0.6644239144
C       -1.0391334693   -0.4833928166    1.0192352611
N       -2.2842870100   -0.3044811149    0.9329189391
C        1.4442443643   -1.0539549152   -0.6821587993
C        0.5982469432   -0.6204010716   -1.5644543309
H        1.5507552687    1.2009477124   -0.6486692139
H        0.4537256821    0.9597915230    1.5693588371
H       -0.6451204025   -1.4477125180    1.3517185203
H        2.1158532799   -1.8231608656   -0.3298471554
H        0.0453707599   -0.7587554617   -2.4812345886
13   
Iteration 3 Energy -340.89788048
C       -2.1431958021    1.7191364432    0.1716923141
N       -0.9380055704    1.8450212651    0.1773659655
C        0.8943982996    0.3193341858   -0.4753464731
C       -0.1200853151    0.7018217060    0.6067625757
C       -1.1179303041   -0.3945639151    0.9624250428
N       -2.3530914244   -0.1733400110    0.8386023847
C        1.3526350935   -1.0972679096   -0.6971400074
C        0.5548685223   -0.6181119491   -1.6004399598
H        1.5853169164    1.1480125464   -0.6623414557
H        0.4169135145    1.0027096973    1.5170984248
H       -0.7679830948   -1.3641494640    1.3274176841
H        1.9676417396   -1.9038304114   -0.3255849042
H        0.0171692799   -0.7264223443   -2.5301588209
13   
Iteration 4 Energy -340.89787729
C       -1.9513153038    2.1851219062   -0.0421023302
N       -0.7453637370    2.0742607102    0.0037038476
C        0.7705450774    0.1911165913   -0.5195750576
C       -0.1824605226    0.8127632451    0.5058272365
C       -1.3871302641   -0.0512982145    0.8603831507
N       -2.5499675485    0.4025660615    0.6823069192
C        0.9305603034   -1.2971403434   -0.6801128833
C        0.2841584339   -0.6968962581   -1.6307049251
H        1.6254320940    0.8510984193   -0.6999794346
H        0.3734919444    1.0419276248    1.4256189900
H       -1.2457428624   -1.0550392166    1.2706364640
H        1.3490872115   -2.1993502431   -0.2586121819
H       -0.2307292948   -0.7255342055   -2.5790101528
13   
Iteration 5 Energy -340.89787944
C       -2.0258444111    2.0482227494    0.0285801594
N       -0.8149055554    2.0127838885    0.0598670346
C        0.8107475219    0.2379012545   -0.5088697807
C       -0.1674564374    0.7823885626    0.5365231068
C       -1.3108801595   -0.1613440438    0.8910385859
N       -2.5021110787    0.2203012759    0.7322880838
C        1.0706631788   -1.2339874240   -0.6882206032
C        0.3709175287   -0.6701693786   -1.6232522377
H        1.6155464082    0.9570922399   -0.6933512237
H        0.3838677980    1.0329710535    1.4535217868
H       -1.1018026793   -1.1598946960    1.2846997451
H        1.5567853006   -2.1092962268   -0.2828319294
H       -0.1538527145   -0.7247830538   -2.5649860676
13   
Iteration 6 Energy -340.89788108
C       -2.1410795409    1.7286781044    0.1713825077
N       -0.9354236986    1.8501758707    0.1763127422
C        0.8922464013    0.3185720914   -0.4770017604
C       -0.1214012866    0.7039312700    0.6048201281
C       -1.1230450572   -0.3894716440    0.9587493356
N       -2.3574306455   -0.1636041533    0.8356742954
C        1.3478583849   -1.0992827242   -0.6963808066
C        0.5509298978   -0.6202780846   -1.6004716708
H        1.5847231238    1.1456546761   -0.6652169449
H        0.4160917480    1.0023023637    1.5157128280
H       -0.7765460951   -1.3611102172    1.3215741315
H        1.9618756808   -1.9060903191   -0.3237149655
H        0.0131039608   -0.7294002313   -2.5300329999
13   
Iteration 7 Energy -340.89788132
C       -2.1416684145    1.7293772674    0.1731070276
N       -0.9359362863    1.8501134133    0.1777709296
C        0.8913553413    0.3185579852   -0.4768258194
C       -0.1224269269    0.7031032935    0.6051578223
C       -1.1245486982   -0.3902847474    0.9578221715
N       -2.3588476522   -0.1636312030    0.8353630686
C        1.3500160457   -1.0985996541   -0.6943138773
C        0.5517996299   -0.6226265447   -1.5988851328
H        1.5819803929    1.1468871954   -0.6663445836
H        0.4149474520    1.0002746708    1.5165273047
H       -0.7785124582   -1.3626200895    1.3191965159
H        1.9661738122   -1.9034372788   -0.3209129490
H        0.0140957627   -0.7342507146   -2.5282245426
13   
Iteration 8 Energy -340.89788136
C       -2.1301371921    1.7243698947    0.1174235457
N       -0.9247790379    1.8441202867    0.1515678949
C        0.9159965012    0.3037100470   -0.4411155211
C       -0.1237376640    0.7008408578    0.6112871466
C       -1.1358024444   -0.3877081000    0.9502466771
N       -2.3663123269   -0.1612442050    0.7939455981
C        1.3788922034   -1.1159998939   -0.6313194027
C        0.6033450292   -0.6499500369   -1.5604495386
H        1.6115737992    1.1295984758   -0.6230231652
H        0.3911953967    1.0070543460    1.5325626094
H       -0.8001898728   -1.3564262275    1.3306599362
H        1.9850947825   -1.9168575999   -0.2338456824
H        0.0884743880   -0.7718335401   -2.5013591117
