13   
IRC reactant Energy -340.97170845
C       -1.5621717333   -1.3358373129   -0.0844289817
N       -2.2177849313   -1.3686745160   -1.0547684713
C        0.3674935641    1.3566796947   -0.1182007825
C        0.1669476480    0.8235000960    1.1174245343
C       -0.1549441732   -0.5188317453    1.5664106878
N       -0.8789600567   -1.4622367857    1.0472961187
C        0.7163357572   -0.5006078155   -1.7720876004
C        0.4850546601    0.7621726066   -1.4492127210
H        0.5375588648    2.4333118860   -0.1232393929
H        0.3187982079    1.5074206516    1.9521623715
H        0.2383445273   -0.7676009655    2.5550670299
H        0.8876314938   -1.4585797039   -1.3023019260
H        0.4296357614    1.4870527855   -2.2648962861
