13   
Iteration 0 Energy -340.97170845
C       -1.5621717333   -1.3358373129   -0.0844289817
N       -2.2177849313   -1.3686745160   -1.0547684713
C        0.3674935641    1.3566796947   -0.1182007825
C        0.1669476480    0.8235000960    1.1174245343
C       -0.1549441732   -0.5188317453    1.5664106878
N       -0.8789600567   -1.4622367857    1.0472961187
C        0.7163357572   -0.5006078155   -1.7720876004
C        0.4850546601    0.7621726066   -1.4492127210
H        0.5375588648    2.4333118860   -0.1232393929
H        0.3187982079    1.5074206516    1.9521623715
H        0.2383445273   -0.7676009655    2.5550670299
H        0.8876314938   -1.4585797039   -1.3023019260
H        0.4296357614    1.4870527855   -2.2648962861
13   
Iteration 1 Energy -340.97170775
C       -1.5643521831   -1.3368553975   -0.0818096104
N       -2.2204801601   -1.3706649262   -1.0517678533
C        0.3682292641    1.3565296723   -0.1183280131
C        0.1668344244    0.8233118208    1.1171636559
C       -0.1558926063   -0.5184421106    1.5673217905
N       -0.8804888157   -1.4621856928    1.0496380146
C        0.7183139561   -0.4989413645   -1.7741727653
C        0.4867454609    0.7634189384   -1.4498957164
H        0.5385427334    2.4331256054   -0.1226433585
H        0.3187151210    1.5075135428    1.9516651886
H        0.2373786587   -0.7663400426    2.5562042422
H        0.8894604515   -1.4574825320   -1.3054830718
H        0.4320805899    1.4892805482   -2.2647635625
