13   
step_00 start
C       -1.6735906314   -1.3939116027   -0.0097666296
N       -2.2935466740   -1.5270415885   -1.0032819938
C        0.6011559153    1.0515036839   -0.3210427334
C        0.4184861437    0.5984156715    1.0655416180
C       -0.2468234264   -0.4879834678    1.6461015706
N       -1.1088219947   -1.3846629082    1.1714973532
C        1.2520365181    0.1322471394   -1.3700547776
C        0.0099470655    0.4061075898   -1.5643911259
H        0.8644902916    2.1123207175   -0.3670469357
H        0.9606261913    1.2019610886    1.7938768725
H       -0.0339383504   -0.6420697326    2.7040410048
H        2.1819996348   -0.3542174813   -1.6188757021
H       -0.9072544014    0.2989962784   -2.1210342356
13   
step_00 end
C       -1.4189486545   -1.5587026691   -0.1117068818
N       -1.9982191649   -1.6924568862   -1.1242689985
C        0.3121028811    1.2776984644   -0.0981368196
C        0.0047353185    0.7977572135    1.1427663355
C       -0.2884615307   -0.5317074148    1.6315298770
N       -0.8548595705   -1.5667597270    1.0866972479
C        0.5653031337   -0.6803605302   -1.6235539847
C        0.5462976785    0.6233762321   -1.3717549898
H        0.4784447615    2.3535491860   -0.1323915917
H        0.0640953012    1.5269544352    1.9497619522
H       -0.0117007819   -0.6920693805    2.6762913820
H        0.7247143757   -1.3063364087   -2.4906620192
H        0.7630080590    1.3080026581   -2.2005128250
