13   
IRC reactant Energy -340.92222505
C       -1.4875635373    1.4544127051   -0.3380337413
N       -0.5139637143    0.9380161796    0.0812484102
C        1.5330198680   -0.2018790652   -0.6497239307
C        0.6701554824    0.2901820612    0.5297696302
C        0.2842160158   -0.8932930795    1.4559161336
N       -0.0899035393   -0.7529226290    2.6370944479
C        0.9312107704   -0.7200211412   -1.9244366924
C        1.4930231780    0.4458727973   -2.0008735151
H        2.4702401045   -0.6296552875   -0.2738929908
H        1.2414156759    1.0086942618    1.1294548181
H        0.3315313641   -1.8947019676    0.9969699577
H        0.3979282895   -1.5313827276   -2.3967631473
H        1.7707611830    1.3154354455   -2.5769050262
