13   
Iteration 0 Energy -340.92222505
C       -1.4875635373    1.4544127051   -0.3380337413
N       -0.5139637143    0.9380161796    0.0812484102
C        1.5330198680   -0.2018790652   -0.6497239307
C        0.6701554824    0.2901820612    0.5297696302
C        0.2842160158   -0.8932930795    1.4559161336
N       -0.0899035393   -0.7529226290    2.6370944479
C        0.9312107704   -0.7200211412   -1.9244366924
C        1.4930231780    0.4458727973   -2.0008735151
H        2.4702401045   -0.6296552875   -0.2738929908
H        1.2414156759    1.0086942618    1.1294548181
H        0.3315313641   -1.8947019676    0.9969699577
H        0.3979282895   -1.5313827276   -2.3967631473
H        1.7707611830    1.3154354455   -2.5769050262
13   
Iteration 1 Energy -340.92249973
C       -1.4947422006    1.4627948389   -0.3462028073
N       -0.5245813402    0.9436016830    0.0775618064
C        1.5236777020   -0.2022327737   -0.6478857901
C        0.6572145065    0.2919362353    0.5279138640
C        0.2792123799   -0.8924952126    1.4572031003
N       -0.0348150758   -0.7613264818    2.6568029150
C        0.9368092377   -0.7217932036   -1.9286094601
C        1.4972344322    0.4450931614   -1.9992967936
H        2.4578611192   -0.6290294369   -0.2640130720
H        1.2344864301    1.0069176043    1.1253156316
H        0.3069606097   -1.8903770591    0.9919693259
H        0.4106877170   -1.5345273219   -2.4064448691
H        1.7809442200    1.3146333425   -2.5725029487
13   
Iteration 2 Energy -340.92344645
C       -1.5201230497    1.4600199094   -0.3973256259
N       -0.5610860601    0.9438067995    0.0547586476
C        1.5054604957   -0.2053411039   -0.6336867263
C        0.6143142977    0.2938139284    0.5205447715
C        0.2647264906   -0.8918356821    1.4576768138
N        0.2260410964   -0.7711144299    2.6981488950
C        0.9541506059   -0.7201545581   -1.9295438487
C        1.5124279128    0.4496800432   -1.9800385285
H        2.4316303229   -0.6284565153   -0.2268499161
H        1.2001641627    1.0030775586    1.1141511107
H        0.1378831019   -1.8708869170    0.9764480743
H        0.4436789481   -1.5324466984   -2.4245867609
H        1.8098895415    1.3232216741   -2.5402230269
13   
Iteration 3 Energy -340.92472478
C       -1.5686224569    1.4361873061   -0.4708688351
N       -0.6220697129    0.9424426606    0.0306777308
C        1.4741868985   -0.1992171403   -0.6078143377
C        0.5511387059    0.3151687419    0.5186843680
C        0.2528242912   -0.8612408120    1.4782989192
N        0.7313853270   -0.9452200339    2.6278358051
C        0.9896401223   -0.7246670421   -1.9237542614
C        1.5422970505    0.4487444035   -1.9556973811
H        2.3853199490   -0.6089047933   -0.1573392365
H        1.1424092362    1.0280804841    1.0997459762
H       -0.2649080030   -1.7129868789    1.0282449422
H        0.5119973287   -1.5445926645   -2.4384643865
H        1.8657212924    1.3194283886   -2.5059744847
13   
Iteration 4 Energy -340.92564970
C       -1.5620900558    1.4082082895   -0.4858209995
N       -0.6138105479    0.9293547292    0.0267878485
C        1.4880219952   -0.1974937748   -0.6030929478
C        0.5627015900    0.3180694258    0.5247857067
C        0.2499232723   -0.8598025631    1.4713410809
N        0.7891218357   -0.9804215714    2.5904167770
C        0.9921267705   -0.7228955757   -1.9153325694
C        1.5396524650    0.4526355690   -1.9515173065
H        2.4012720064   -0.6056060805   -0.1570398580
H        1.1365455224    1.0469074974    1.1067086990
H       -0.3584561147   -1.6692710699    1.0480310343
H        0.5121554727   -1.5439807471   -2.4261699557
H        1.8530072000    1.3253286776   -2.5043257080
13   
Iteration 5 Energy -340.92641516
C       -1.5462623580    1.3441904827   -0.4842808438
N       -0.5827504378    0.8961140049    0.0274395887
C        1.5340782055   -0.1846235569   -0.6064734555
C        0.6101141271    0.3175452737    0.5354261008
C        0.2579114514   -0.8614119183    1.4535963562
N        0.7400992617   -1.0264755561    2.5936416148
C        0.9872854053   -0.7150160343   -1.8977686929
C        1.5366098805    0.4577501300   -1.9617143095
H        2.4563231504   -0.5930951657   -0.1815362299
H        1.1411413748    1.0742986070    1.1246999889
H       -0.4557062921   -1.5911287617    1.0351003773
H        0.4869557817   -1.5386171749   -2.3848476058
H        1.8267638866    1.3268014576   -2.5324251526
13   
Iteration 6 Energy -340.92649821
C       -1.5626513808    1.3523406718   -0.4684494475
N       -0.5962328558    0.9011168939    0.0351338604
C        1.5207991940   -0.1833781037   -0.6086286938
C        0.5982416059    0.3176024506    0.5345869374
C        0.2492818266   -0.8588317585    1.4569357586
N        0.8060040773   -1.0428700705    2.5594123649
C        1.0000760761   -0.7198433389   -1.9086380039
C        1.5432740529    0.4559590274   -1.9650340743
H        2.4394837488   -0.5894516824   -0.1735309502
H        1.1345603644    1.0674148894    1.1261036616
H       -0.5028683796   -1.5642785690    1.0701326002
H        0.5155892786   -1.5483210878   -2.4032860336
H        1.8412099703    1.3242488068   -2.5329103273
13   
Iteration 7 Energy -340.92652523
C       -1.5588942967    1.3567423105   -0.4749220495
N       -0.5929001335    0.9033954999    0.0275087867
C        1.5244310417   -0.1851801326   -0.6067131861
C        0.5990404779    0.3163892995    0.5308481597
C        0.2474932525   -0.8579816507    1.4587219062
N        0.7997795715   -1.0435207736    2.5631285251
C        0.9989931902   -0.7205860118   -1.9045928704
C        1.5390423800    0.4573264067   -1.9606844686
H        2.4452312565   -0.5903346093   -0.1740242564
H        1.1366008372    1.0648725661    1.1224781310
H       -0.4969554750   -1.5671817045    1.0663401306
H        0.5135790337   -1.5490052018   -2.3983903046
H        1.8313924516    1.3281679880   -2.5276317710
13   
Iteration 8 Energy -340.92653377
C       -1.5585502977    1.3589293837   -0.4677108606
N       -0.5897352155    0.9046826566    0.0283073557
C        1.5263096875   -0.1832128617   -0.6076769635
C        0.6020908621    0.3160202746    0.5308261785
C        0.2466410432   -0.8595346610    1.4571523488
N        0.7823754449   -1.0367991269    2.5708560612
C        0.9996133176   -0.7216191965   -1.9041553338
C        1.5382983071    0.4565918146   -1.9631224768
H        2.4481489891   -0.5869014030   -0.1759195544
H        1.1386511010    1.0643144218    1.1240528348
H       -0.4898228401   -1.5734250467    1.0573685000
H        0.5149695966   -1.5517425934   -2.3958059826
H        1.8288145677    1.3265934928   -2.5322982408
13   
Iteration 9 Energy -340.92654268
C       -1.5599639390    1.3631001708   -0.4584446465
N       -0.5867042700    0.9082344063    0.0281009266
C        1.5286325029   -0.1808225626   -0.6073662214
C        0.6044059407    0.3172535275    0.5305090649
C        0.2436611071   -0.8591466356    1.4539455425
N        0.7760532684   -1.0404028535    2.5684023675
C        1.0026336157   -0.7249336681   -1.9021730677
C        1.5370263209    0.4548582249   -1.9650133467
H        2.4521438085   -0.5807663435   -0.1758144537
H        1.1402418971    1.0639127059    1.1267079244
H       -0.4969082824   -1.5676172035    1.0517748551
H        0.5214080722   -1.5586329497   -2.3910933359
H        1.8240420646    1.3240749501   -2.5371666637
13   
Iteration 10 Energy -340.92654949
C       -1.5615971978    1.3715579594   -0.4485102726
N       -0.5838254358    0.9147478059    0.0269387606
C        1.5306039853   -0.1779002907   -0.6062931881
C        0.6049563741    0.3195409591    0.5300472102
C        0.2391383097   -0.8583030259    1.4499979286
N        0.7722025104   -1.0457463801    2.5630237673
C        1.0064634092   -0.7296205932   -1.8989251148
C        1.5354532222    0.4522605523   -1.9668049587
H        2.4563181338   -0.5721736797   -0.1743158746
H        1.1412668048    1.0631312637    1.1295590802
H       -0.5049545075   -1.5617871118    1.0457092139
H        0.5298529586   -1.5679635927   -2.3844258090
H        1.8184659524    1.3204296643   -2.5425416945
13   
Iteration 11 Energy -340.92655188
C       -1.5611298681    1.3773931524   -0.4458483844
N       -0.5822622447    0.9190454231    0.0258435121
C        1.5313618859   -0.1767940864   -0.6053342668
C        0.6044999480    0.3213545130    0.5301557077
C        0.2366770506   -0.8572716702    1.4478305009
N        0.7712377544   -1.0489360271    2.5595057868
C        1.0084284165   -0.7325768130   -1.8966562875
C        1.5338462348    0.4507884958   -1.9671319481
H        2.4583470890   -0.5674941357   -0.1729135253
H        1.1417149803    1.0630916312    1.1310150304
H       -0.5089489409   -1.5586049823    1.0427878902
H        0.5343741593   -1.5733956146   -2.3804093384
H        1.8142218777    1.3187443493   -2.5444648029
13   
Iteration 12 Energy -340.92655276
C       -1.5600065747    1.3809457742   -0.4465079805
N       -0.5816518069    0.9214956782    0.0251882899
C        1.5316755774   -0.1759503155   -0.6047220566
C        0.6038469556    0.3225621786    0.5304467749
C        0.2353455453   -0.8564649927    1.4468376057
N        0.7703819500   -1.0496998533    2.5581179021
C        1.0090136329   -0.7339780549   -1.8949974765
C        1.5330211428    0.4499470696   -1.9672844552
H        2.4592792224   -0.5646118191   -0.1718113398
H        1.1416987984    1.0633994758    1.1317452613
H       -0.5099600562   -1.5577465866    1.0411914315
H        0.5357203876   -1.5759343357   -2.3775383762
H        1.8122304512    1.3175723276   -2.5456600750
