13   
Iteration 1 Energy -340.92496249
C       -2.2811354919    2.1017164037    0.4026379202
N       -1.5375751571    1.2140109135    0.6265142875
C        0.5745605813    0.2403263328   -0.1098850269
C       -0.6268640043    0.1351711448    0.8523233645
C       -1.3818223675   -1.1941852658    0.7085358624
N       -1.3512207309   -2.0901979976    1.5769707901
C        1.3272784212   -0.9731960326   -0.5749409206
C        0.5883258120   -0.3945036259   -1.4702443273
H        1.1038511400    1.1858663468    0.0497536387
H       -0.2671016518    0.2076429272    1.8844201292
H       -1.9574081718   -1.3232055485   -0.2206656183
H        2.0271583270   -1.7450035814   -0.2922537812
H        0.2249593690   -0.3297254867   -2.4849062910
13   
Iteration 0 Energy -340.92496249
C       -2.2813955417    2.1010245773    0.4031216338
N       -1.5377788801    1.2133291261    0.6268508017
C        0.5744025579    0.2398730104   -0.1097275040
C       -0.6270072604    0.1345004060    0.8524805541
C       -1.3818865572   -1.1948887106    0.7085407917
N       -1.3511665014   -2.0910224454    1.5768478184
C        1.3272100278   -0.9735187870   -0.5749823059
C        0.5882021132   -0.3947426252   -1.4701848774
H        1.1036285970    1.1854264623    0.0500517814
H       -0.2672281668    0.2068452130    1.8845810601
H       -1.9574834921   -1.3238341110   -0.2206655067
H        2.0271539229   -1.7453158559   -0.2924265548
H        0.2248198800   -0.3298317550   -2.4848304120
13   
Iteration 84 Energy -340.92496252
C       -2.2814527481    2.1008961515    0.4029686602
N       -1.5378768726    1.2131885616    0.6267803305
C        0.5744005738    0.2398296429   -0.1097194691
C       -0.6270050619    0.1344736689    0.8524633503
C       -1.3818490220   -1.1949371243    0.7086948236
N       -1.3516294709   -2.0905849738    1.5775176902
C        1.3271059365   -0.9735653647   -0.5751595722
C        0.5882451009   -0.3945022955   -1.4703042973
H        1.1037601182    1.1852659448    0.0502610621
H       -0.2671686080    0.2068953192    1.8845380636
H       -1.9569969366   -1.3243466411   -0.2207053900
H        2.0269315559   -1.7455023879   -0.2926789367
H        0.2250061339   -0.3292659968   -2.4849990348
13   
Iteration 83 Energy -340.92496244
C       -2.2830684052    2.0980543456    0.3981246596
N       -1.5380231878    1.2122221589    0.6245069066
C        0.5755458620    0.2394459841   -0.1084863333
C       -0.6265136843    0.1344990433    0.8528780615
C       -1.3807639266   -1.1954722015    0.7105929396
N       -1.3537151326   -2.0882494742    1.5825619516
C        1.3256129684   -0.9744063721   -0.5770384578
C        0.5879541305   -0.3914711235   -1.4706660606
H        1.1069049967    1.1833944530    0.0537600172
H       -0.2679433126    0.2089084526    1.8852306394
H       -1.9530886246   -1.3277167154   -0.2201528353
H        2.0238093278   -1.7485218738   -0.2965488737
H        0.2247596874   -0.3228421721   -2.4851053344
13   
Iteration 82 Energy -340.92496128
C       -2.2839914104    2.0962818337    0.3955176461
N       -1.5385549570    1.2112163952    0.6235284935
C        0.5760561266    0.2391280482   -0.1076879829
C       -0.6262924911    0.1345293981    0.8531051068
C       -1.3794869394   -1.1961485857    0.7123977330
N       -1.3608157673   -2.0834003491    1.5899453653
C        1.3240994583   -0.9749906568   -0.5790817340
C        0.5872460815   -0.3887862892   -1.4712499688
H        1.1091577957    1.1817627197    0.0563560791
H       -0.2678067627    0.2098662077    1.8854909746
H       -1.9434215461   -1.3337618461   -0.2226785845
H        2.0212880423   -1.7507304191   -0.3005172572
H        0.2239930687   -0.3171219518   -2.4854685905
13   
Iteration 81 Energy -340.92495848
C       -2.2858376312    2.0921913289    0.3933392685
N       -1.5377584967    1.2095798787    0.6222864933
C        0.5774109981    0.2386601956   -0.1070471320
C       -0.6247729692    0.1336615633    0.8538949073
C       -1.3795653597   -1.1962986186    0.7137088748
N       -1.3700153628   -2.0784679321    1.5968555492
C        1.3244504318   -0.9749029273   -0.5813825445
C        0.5871442078   -0.3867705645   -1.4718705165
H        1.1111361259    1.1807011187    0.0581122370
H       -0.2674270320    0.2104608727    1.8863926895
H       -1.9387855559   -1.3370112638   -0.2236768023
H        2.0218942435   -1.7512467741   -0.3049750576
H        0.2235970996   -0.3127123727   -2.4859806861
13   
Iteration 80 Energy -340.92495224
C       -2.2868030464    2.0904216381    0.3926425689
N       -1.5377965104    1.2088173158    0.6224477794
C        0.5778131999    0.2384878305   -0.1068174559
C       -0.6242571895    0.1333876142    0.8539645987
C       -1.3782755441   -1.1970980766    0.7155750385
N       -1.3827218299   -2.0716017608    1.6061691115
C        1.3232285274   -0.9751167661   -0.5838142236
C        0.5861869848   -0.3842690857   -1.4728213038
H        1.1129286028    1.1795893844    0.0598505703
H       -0.2669188860    0.2109197890    1.8865965652
H       -1.9240842808   -1.3451962419   -0.2284897344
H        2.0199681073   -1.7526728503   -0.3094057805
H        0.2222025642   -0.3078242859   -2.4862404539
13   
Iteration 79 Energy -340.92494056
C       -2.2888032729    2.0860924824    0.3915002563
N       -1.5373054971    1.2067359391    0.6216994094
C        0.5790115555    0.2379144943   -0.1062605101
C       -0.6227203422    0.1324706862    0.8547681730
C       -1.3782166049   -1.1974713657    0.7173574488
N       -1.3978824793   -2.0630593133    1.6163544796
C        1.3235770060   -0.9748868709   -0.5868343444
C        0.5858541233   -0.3818636726   -1.4737577573
H        1.1148777621    1.1782433166    0.0615423297
H       -0.2654587947    0.2106930893    1.8872361910
H       -1.9139440409   -1.3516395559   -0.2316383900
H        2.0210128808   -1.7529475124   -0.3150650550
H        0.2214684034   -0.3024372124   -2.4872449506
13   
Iteration 78 Energy -340.92492290
C       -2.2904094208    2.0829917531    0.3917217376
N       -1.5367751422    1.2053963916    0.6218143600
C        0.5798474115    0.2375168109   -0.1062738907
C       -0.6214849907    0.1315311769    0.8549362779
C       -1.3774709055   -1.1981129970    0.7192109852
N       -1.4145580119   -2.0540712316    1.6270886618
C        1.3231226181   -0.9748521501   -0.5899682296
C        0.5852213620   -0.3792599677   -1.4751255128
H        1.1167753267    1.1770914683    0.0631553710
H       -0.2650045088    0.2112822335    1.8876311122
H       -1.8987783055   -1.3607341472   -0.2359966092
H        2.0204148071   -1.7537119568   -0.3206878542
H        0.2205704590   -0.2972228793   -2.4878491288
13   
Iteration 77 Energy -340.92489961
C       -2.2922356166    2.0795521570    0.3921693535
N       -1.5363820947    1.2037943995    0.6217964292
C        0.5807012614    0.2371421478   -0.1061100109
C       -0.6202979754    0.1307478933    0.8553714307
C       -1.3774664540   -1.1987541864    0.7209958628
N       -1.4314738531   -2.0441578543    1.6374841856
C        1.3235693929   -0.9743794308   -0.5928665648
C        0.5849268080   -0.3771048238   -1.4762085294
H        1.1181797154    1.1760932064    0.0642358616
H       -0.2629798761    0.2099848873    1.8877852713
H       -1.8862480071   -1.3687626056   -0.2401861874
H        2.0214697043   -1.7537062454   -0.3257852610
H        0.2197076940   -0.2926050401   -2.4890245605
13   
Iteration 76 Energy -340.92487309
C       -2.2932223206    2.0767401635    0.3934987171
N       -1.5357565637    1.2021447832    0.6224327106
C        0.5812981582    0.2364961019   -0.1063747038
C       -0.6189563795    0.1294314302    0.8556029060
C       -1.3772874678   -1.1988674942    0.7221017271
N       -1.4475341873   -2.0353814032    1.6461277008
C        1.3238223756   -0.9742121755   -0.5956421141
C        0.5843417300   -0.3755500398   -1.4774492852
H        1.1191381873    1.1751920959    0.0650218621
H       -0.2628266009    0.2104992692    1.8882764442
H       -1.8735093207   -1.3764143651   -0.2434002006
H        2.0227247373   -1.7531964560   -0.3309673116
H        0.2192383513   -0.2890374053   -2.4895711723
13   
Iteration 75 Energy -340.92484587
C       -2.2948055899    2.0747222311    0.3945303355
N       -1.5348056762    1.2022091254    0.6228476371
C        0.5818574436    0.2369239400   -0.1065896145
C       -0.6182303665    0.1292180405    0.8558523235
C       -1.3774948548   -1.2002062716    0.7237794249
N       -1.4615422576   -2.0283469475    1.6534549996
C        1.3245471907   -0.9730798771   -0.5975003158
C        0.5845196348   -0.3738787032   -1.4783858843
H        1.1196317932    1.1753900163    0.0650452454
H       -0.2597920230    0.2079050660    1.8879136219
H       -1.8633889604   -1.3831429202   -0.2471513969
H        2.0229775867   -1.7530957972   -0.3333512609
H        0.2179967787   -0.2867733976   -2.4907878351
13   
Iteration 74 Energy -340.92480546
C       -2.2949330297    2.0714755530    0.3966457113
N       -1.5344613847    1.1991248822    0.6240640464
C        0.5824587993    0.2356629699   -0.1067551142
C       -0.6164004936    0.1272228686    0.8564206835
C       -1.3774300011   -1.1994095022    0.7243234267
N       -1.4805222844   -2.0173546392    1.6617852034
C        1.3253995967   -0.9730385111   -0.6005513775
C        0.5831316374   -0.3732371384   -1.4793094250
H        1.1201712113    1.1744230928    0.0653272500
H       -0.2602202157    0.2087904451    1.8891366982
H       -1.8493348462   -1.3906915505   -0.2509673947
H        2.0268045392   -1.7510885807   -0.3399003906
H        0.2168071706   -0.2840353847   -2.4905620371
13   
Iteration 73 Energy -340.92473797
C       -2.2965949175    2.0679473565    0.3997134438
N       -1.5327599353    1.1981220852    0.6254848097
C        0.5832429840    0.2356813842   -0.1073400694
C       -0.6146736848    0.1259199230    0.8570585345
C       -1.3779407377   -1.2009082114    0.7265473203
N       -1.5081414129   -2.0036229371    1.6733550652
C        1.3270079624   -0.9713141600   -0.6041761778
C        0.5828378309   -0.3711376967   -1.4809837416
H        1.1202994398    1.1744287620    0.0649198363
H       -0.2564752984    0.2058142861    1.8890071520
H       -1.8294604993   -1.4028662802   -0.2561309725
H        2.0294974469   -1.7494333958   -0.3455095223
H        0.2146315211   -0.2807866110   -2.4922883980
13   
Iteration 72 Energy -340.92465550
C       -2.2973725805    2.0642671497    0.4034438213
N       -1.5314577617    1.1957889040    0.6272869610
C        0.5839621387    0.2349042780   -0.1079240909
C       -0.6125672247    0.1238845069    0.8577443890
C       -1.3781773802   -1.2013379881    0.7282853048
N       -1.5363574027   -1.9882880219    1.6841816481
C        1.3285525398   -0.9702318720   -0.6080926699
C        0.5817400054   -0.3697379895   -1.4825646281
H        1.1205422355    1.1742073009    0.0645643791
H       -0.2544215004    0.2046762531    1.8898888601
H       -1.8091626814   -1.4156092469   -0.2616463789
H        2.0336233469   -1.7469007481   -0.3527056728
H        0.2125669644   -0.2777780212   -2.4928046422
13   
Iteration 71 Energy -340.92457002
C       -2.2982517641    2.0612782797    0.4069847161
N       -1.5301032321    1.1942748281    0.6288935794
C        0.5845470474    0.2345273206   -0.1084727156
C       -0.6109408039    0.1222873372    0.8582801658
C       -1.3786578499   -1.2022546431    0.7297231934
N       -1.5624082985   -1.9740699470    1.6933245143
C        1.3300397036   -0.9688962666   -0.6115030041
C        0.5811073893   -0.3682304998   -1.4839983533
H        1.1203510286    1.1738922669    0.0641751646
H       -0.2520074927    0.2024627919    1.8898941683
H       -1.7897669288   -1.4276094238   -0.2649786885
H        2.0370098256   -1.7448271834   -0.3585371270
H        0.2105520746   -0.2749903560   -2.4941283330
13   
Iteration 70 Energy -340.92448256
C       -2.2986662836    2.0585429498    0.4105138548
N       -1.5288456626    1.1926026278    0.6306078334
C        0.5850337209    0.2340211062   -0.1090892613
C       -0.6092796577    0.1205961643    0.8587829937
C       -1.3790174655   -1.2028265287    0.7313276648
N       -1.5862683154   -1.9604936641    1.7012946185
C        1.3315279065   -0.9677125542   -0.6146820151
C        0.5802901751   -0.3671226938   -1.4853752007
H        1.1202720440    1.1741041286    0.0636754096
H       -0.2498378425    0.2009081463    1.8906075838
H       -1.7729191565   -1.4393105071   -0.2693496660
H        2.0404557248   -1.7424964533   -0.3641517549
H        0.2087255116   -0.2729682170   -2.4945047802
13   
Iteration 69 Energy -340.92438767
C       -2.2988529681    2.0561913322    0.4139841475
N       -1.5275531431    1.1910991245    0.6322863814
C        0.5854534291    0.2336748760   -0.1096512856
C       -0.6078256564    0.1189485533    0.8592866593
C       -1.3795881030   -1.2036946177    0.7324011709
N       -1.6104019553   -1.9471588038    1.7080924602
C        1.3330943814   -0.9662906860   -0.6177551133
C        0.5796574600   -0.3659222996   -1.4866369212
H        1.1196090664    1.1738709084    0.0631648768
H       -0.2478458776    0.1987266359    1.8905032272
H       -1.7548097009   -1.4504619967   -0.2709364299
H        2.0439044601   -1.7402297417   -0.3693390470
H        0.2066293065   -0.2709087800   -2.4957428459
13   
Iteration 68 Energy -340.92427388
C       -2.2985785726    2.0538115111    0.4179941044
N       -1.5261089068    1.1893327519    0.6343356286
C        0.5858029867    0.2332105011   -0.1103834204
C       -0.6060841527    0.1170577953    0.8599712444
C       -1.3800238418   -1.2045329241    0.7342707906
N       -1.6367840264   -1.9323750625    1.7151113287
C        1.3348705144   -0.9647314259   -0.6211180251
C        0.5786288625   -0.3649087282   -1.4880812664
H        1.1190590630    1.1744259534    0.0623083591
H       -0.2452774370    0.1969102642    1.8913743255
H       -1.7361424552   -1.4637203288   -0.2749564978
H        2.0478366428   -1.7373091308   -0.3751119146
H        0.2042720222   -0.2693266718   -2.4960573765
13   
Iteration 67 Energy -340.92413987
C       -2.2979165872    2.0518742436    0.4223308337
N       -1.5245649153    1.1876385613    0.6365533753
C        0.5860469232    0.2327997123   -0.1110761918
C       -0.6044665522    0.1150683335    0.8607475067
C       -1.3805497635   -1.2057487057    0.7356196961
N       -1.6658597505   -1.9166133463    1.7211755236
C        1.3366179716   -0.9629819043   -0.6246236988
C        0.5774856728   -0.3637927735   -1.4894541081
H        1.1178676314    1.1744077370    0.0613558049
H       -0.2429447825    0.1945725495    1.8914672600
H       -1.7137852793   -1.4777721482   -0.2760166606
H        2.0521390337   -1.7341784637   -0.3811687885
H        0.2014010968   -0.2674292908   -2.4972532721
13   
Iteration 66 Energy -340.92399273
C       -2.2969006805    2.0502344078    0.4269124351
N       -1.5230136806    1.1860029054    0.6389515690
C        0.5861855119    0.2323719605   -0.1118028992
C       -0.6027808622    0.1131245274    0.8616269204
C       -1.3808128108   -1.2068898453    0.7375661094
N       -1.6950675431   -1.9002637125    1.7266318055
C        1.3382403848   -0.9612838579   -0.6280692130
C        0.5759542145   -0.3628862219   -1.4908145497
H        1.1169222558    1.1751342400    0.0601812971
H       -0.2401869282    0.1925814393    1.8924395513
H       -1.6916754700   -1.4934132574   -0.2792007352
H        2.0563810079   -1.7307728153   -0.3873305369
H        0.1982252995   -0.2660952652   -2.4974344734
13   
Iteration 65 Energy -340.92385223
C       -2.2957454645    2.0492367232    0.4309507123
N       -1.5217176434    1.1846153685    0.6410080497
C        0.5862535216    0.2320795647   -0.1123521817
C       -0.6015116383    0.1114150021    0.8623686072
C       -1.3810183447   -1.2081396309    0.7385534032
N       -1.7213722948   -1.8857233152    1.7301054801
C        1.3395041483   -0.9597179667   -0.6311097508
C        0.5746696111   -0.3618713400   -1.4919112411
H        1.1156477538    1.1750807776    0.0593348293
H       -0.2383033724    0.1905417930    1.8924363353
H       -1.6699321057   -1.5071388376   -0.2786231403
H        2.0599048038   -1.7280085496   -0.3926794351
H        0.1950917243   -0.2645250842   -2.4984243877
13   
Iteration 64 Energy -340.92371921
C       -2.2945033621    2.0484958045    0.4346881110
N       -1.5205837164    1.1834403717    0.6429585360
C        0.5862046664    0.2317888064   -0.1129289608
C       -0.6003062929    0.1099769693    0.8630871233
C       -1.3809760238   -1.2091343484    0.7403861209
N       -1.7445011716   -1.8723006635    1.7331533764
C        1.3405178308   -0.9583771683   -0.6338310283
C        0.5732107397   -0.3610861098   -1.4930028658
H        1.1149599115    1.1759276725    0.0584485068
H       -0.2360697978    0.1892360456    1.8935282353
H       -1.6514480620   -1.5211241559   -0.2811754836
H        2.0626995656   -1.7254353628   -0.3974876149
H        0.1922664118   -0.2635633566   -2.4981667759
13   
Iteration 63 Energy -340.92359076
C       -2.2931988112    2.0481834436    0.4379937521
N       -1.5196146559    1.1823563937    0.6446134665
C        0.5861471716    0.2316021099   -0.1133726344
C       -0.5994681722    0.1085920761    0.8636669636
C       -1.3810137443   -1.2104013283    0.7409054012
N       -1.7662504798   -1.8602901187    1.7346348176
C        1.3413378459   -0.9570532728   -0.6363719476
C        0.5721521540   -0.3600545557   -1.4939172489
H        1.1136761153    1.1755186795    0.0579322827
H       -0.2348759332    0.1876144692    1.8930858904
H       -1.6321688292   -1.5329004793   -0.2782854513
H        2.0651489058   -1.7234092827   -0.4018086110
H        0.1895991323   -0.2619136296   -2.4994194005
13   
Iteration 62 Energy -340.92345944
C       -2.2917186191    2.0480457262    0.4414347360
N       -1.5186659024    1.1815025588    0.6464490836
C        0.5859073471    0.2313744183   -0.1139327339
C       -0.5985373164    0.1074264862    0.8643338434
C       -1.3808117064   -1.2114189774    0.7429518563
N       -1.7871032046   -1.8479367207    1.7364611654
C        1.3419624275   -0.9558755273   -0.6388191315
C        0.5705924066   -0.3593099927   -1.4949574470
H        1.1131251609    1.1765447914    0.0571320720
H       -0.2327542863    0.1867168238    1.8943751740
H       -1.6146469346   -1.5469926470   -0.2807873318
H        2.0671430081   -1.7212052399   -0.4060881687
H        0.1869783187   -0.2610271948   -2.4988958375
13   
Iteration 61 Energy -340.92332431
C       -2.2901220566    2.0482641003    0.4446754717
N       -1.5177792859    1.1806004414    0.6480970125
C        0.5857105409    0.2312491330   -0.1143758781
C       -0.5979106972    0.1061507338    0.8648914856
C       -1.3806773650   -1.2128742763    0.7432716598
N       -1.8083723476   -1.8363168643    1.7366500213
C        1.3425093051   -0.9545906140   -0.6412763676
C        0.5694587012   -0.3582273191   -1.4958388014
H        1.1116994748    1.1759560803    0.0566866869
H       -0.2317748393    0.1852003917    1.8936755342
H       -1.5947191247   -1.5589664234   -0.2762270567
H        2.0691525143   -1.7193840660   -0.4102230685
H        0.1842958789   -0.2592168125   -2.5003494192
13   
Iteration 60 Energy -340.92318317
C       -2.2883096331    2.0486678943    0.4481803325
N       -1.5169181974    1.1799595885    0.6499994069
C        0.5852945221    0.2310864197   -0.1149344004
C       -0.5971409086    0.1051421123    0.8655887778
C       -1.3803339764   -1.2139972750    0.7454790686
N       -1.8292280857   -1.8238921377    1.7372550630
C        1.3428195878   -0.9534694489   -0.6436349659
C        0.5676286485   -0.3575145613   -1.4968380978
H        1.1111327846    1.1771184766    0.0558193369
H       -0.2296195521    0.1844262617    1.8950850193
H       -1.5760986694   -1.5740601250   -0.2782533574
H        2.0707546090   -1.7172679311   -0.4144003991
H        0.1814895699   -0.2583547693   -2.4996885041
13   
Iteration 59 Energy -340.92302513
C       -2.2861588769    2.0495600658    0.4518973675
N       -1.5160382470    1.1791819853    0.6519393245
C        0.5848941515    0.2310178406   -0.1154363093
C       -0.5965934528    0.1038932038    0.8662749138
C       -1.3798015087   -1.2157235774    0.7458002017
N       -1.8526812479   -1.8112010333    1.7359332033
C        1.3429781175   -0.9521713889   -0.6462470866
C        0.5660408581   -0.3563840896   -1.4977583160
H        1.1095454241    1.1765402778    0.0552504171
H       -0.2286481016    0.1830831741    1.8944315757
H       -1.5528624295   -1.5881674416   -0.2723604525
H        2.0724760569   -1.7153840877   -0.4188934958
H        0.1783199553   -0.2564004242   -2.5011740631
13   
Iteration 58 Energy -340.92281803
C       -2.2831271271    2.0513580876    0.4569500223
N       -1.5150744329    1.1788064955    0.6548023089
C        0.5840097983    0.2310479264   -0.1162085278
C       -0.5959396787    0.1028688036    0.8672510374
C       -1.3787372836   -1.2176171770    0.7481239308
N       -1.8819748939   -1.7945121775    1.7337384149
C        1.3425430949   -0.9507827495   -0.6493407836
C        0.5631728165   -0.3552106922   -1.4990324611
H        1.1084625029    1.1776417363    0.0540690062
H       -0.2261733935    0.1822851508    1.8956609213
H       -1.5230218589   -1.6100353363   -0.2711556705
H        2.0734636334   -1.7131127308   -0.4243369022
H        0.1738675217   -0.2548928321   -2.5008640160
13   
Iteration 57 Energy -340.92260488
C       -2.2799473557    2.0538248644    0.4618745451
N       -1.5143186129    1.1786243987    0.6576516174
C        0.5830186326    0.2312634102   -0.1169007714
C       -0.5956450095    0.1020186519    0.8681093570
C       -1.3771925217   -1.2199430639    0.7491210418
N       -1.9113183387   -1.7786007062    1.7292234108
C        1.3416434457   -0.9494282985   -0.6523824469
C        0.5604024560   -0.3537026972   -1.5001842446
H        1.1069125692    1.1776222874    0.0531747072
H       -0.2244006673    0.1811984976    1.8954811900
H       -1.4903585703   -1.6307711087   -0.2643084255
H        2.0736325236   -1.7115217225   -0.4294766011
H        0.1690421480   -0.2527400084   -2.5017260995
13   
Iteration 56 Energy -340.92244535
C       -2.2775428323    2.0557894242    0.4654889568
N       -1.5138755072    1.1786230662    0.6597902527
C        0.5821576062    0.2314154868   -0.1174246101
C       -0.5954760830    0.1015749958    0.8687698581
C       -1.3760137087   -1.2214871539    0.7504831730
N       -1.9324366830   -1.7667162140    1.7253589114
C        1.3407665617   -0.9485594613   -0.6545549251
C        0.5581114766   -0.3526656107   -1.5010633349
H        1.1060873740    1.1781256846    0.0524174141
H       -0.2227469540    0.1806563571    1.8960088845
H       -1.4664059896   -1.6471351594   -0.2607158758
H        2.0733984770   -1.7104173129   -0.4332083842
H        0.1654469614   -0.2513595976   -2.5016930401
13   
Iteration 55 Energy -340.92233084
C       -2.2758319282    2.0571779155    0.4680192995
N       -1.5135332439    1.1785441555    0.6612456623
C        0.5815928481    0.2315277814   -0.1178085932
C       -0.5953759137    0.1011626991    0.8691780666
C       -1.3751135283   -1.2227377347    0.7509604625
N       -1.9474887841   -1.7585727189    1.7220054519
C        1.3401741866   -0.9478806404   -0.6561823355
C        0.5566770308   -0.3517745377   -1.5017328084
H        1.1053200770    1.1780261691    0.0520625806
H       -0.2219297967    0.1802746940    1.8958635658
H       -1.4491546358   -1.6580251935   -0.2558978888
H        2.0731795982   -1.7097484905   -0.4358887372
H        0.1629547889   -0.2501295942   -2.5021674458
13   
Iteration 54 Energy -340.92225274
C       -2.2748561378    2.0581654494    0.4696948651
N       -1.5133591695    1.1786687624    0.6621474697
C        0.5812218139    0.2317018885   -0.1180287311
C       -0.5951595697    0.1008641770    0.8697815550
C       -1.3741891618   -1.2238669314    0.7518976949
N       -1.9573208143   -1.7528461322    1.7198646477
C        1.3398197147   -0.9473197629   -0.6572236052
C        0.5557090323   -0.3512491105   -1.5023180205
H        1.1049221999    1.1786253215    0.0515229584
H       -0.2209654433    0.1798827788    1.8965963362
H       -1.4385860575   -1.6656811166   -0.2545557515
H        2.0728335643   -1.7092816113   -0.4375185229
H        0.1614007278   -0.2498192079   -2.5022036155
13   
Iteration 53 Energy -340.92220115
C       -2.2742632020    2.0586912257    0.4708977039
N       -1.5130355201    1.1785910906    0.6628136481
C        0.5812964467    0.2317264664   -0.1183052956
C       -0.5944717355    0.0999673522    0.8705986534
C       -1.3727139796   -1.2252113251    0.7513742866
N       -1.9630590066   -1.7500610344    1.7183927325
C        1.3398270527   -0.9469365056   -0.6580743385
C        0.5555889162   -0.3508729914   -1.5027715158
H        1.1041756048    1.1784300512    0.0512408476
H       -0.2220449979    0.1812159520    1.8972257290
H       -1.4332953933   -1.6688290600   -0.2517793919
H        2.0726804155   -1.7093538749   -0.4387411483
H        0.1607860983   -0.2495128418   -2.5032146306
13   
Iteration 52 Energy -340.92215549
C       -2.2732989017    2.0593367694    0.4717709988
N       -1.5130009292    1.1787134174    0.6634719757
C        0.5805891649    0.2316251729   -0.1184327607
C       -0.5955029536    0.1007300251    0.8696159595
C       -1.3743177874   -1.2243921305    0.7525409795
N       -1.9703912162   -1.7458896060    1.7167692401
C        1.3392177983   -0.9469399751   -0.6586686927
C        0.5544738907   -0.3503905159   -1.5028189033
H        1.1042609027    1.1780836878    0.0514873869
H       -0.2200779624    0.1792565135    1.8957048170
H       -1.4229992868   -1.6757398842   -0.2489469842
H        2.0730242000   -1.7086105280   -0.4400611475
H        0.1594937799   -0.2479384416   -2.5027755887
13   
Iteration 51 Energy -340.92211227
C       -2.2727208224    2.0599113904    0.4727501777
N       -1.5128568030    1.1787847281    0.6640218169
C        0.5803549797    0.2316724292   -0.1186369678
C       -0.5953047721    0.1005247548    0.8699959923
C       -1.3736903623   -1.2251158767    0.7529432879
N       -1.9758316793   -1.7428131212    1.7154712410
C        1.3390060106   -0.9466860289   -0.6593054813
C        0.5539253686   -0.3501066523   -1.5031768726
H        1.1040884592    1.1784234510    0.0511996893
H       -0.2197638204    0.1795251120    1.8962355924
H       -1.4171344907   -1.6801665260   -0.2481369725
H        2.0727078549   -1.7084200996   -0.4410424610
H        0.1586907763   -0.2476890561   -2.5026617617
13   
Iteration 50 Energy -340.92208206
C       -2.2724362023    2.0602599771    0.4733262247
N       -1.5128189361    1.1787923891    0.6642922175
C        0.5801864642    0.2317610528   -0.1187408003
C       -0.5952291971    0.1004484424    0.8703132458
C       -1.3733104539   -1.2258203339    0.7529379532
N       -1.9796629274   -1.7408020515    1.7143997996
C        1.3389385648   -0.9464415873   -0.6597199731
C        0.5536933064   -0.3498479801   -1.5033748397
H        1.1038025649    1.1782988284    0.0510036048
H       -0.2192972438    0.1793633253    1.8961978304
H       -1.4131532725   -1.6825563050   -0.2464015650
H        2.0726206768   -1.7083263441   -0.4415776743
H        0.1581373550   -0.2472849086   -2.5029987432
13   
Iteration 49 Energy -340.92206177
C       -2.2722605107    2.0605264124    0.4736353698
N       -1.5129116027    1.1789730164    0.6644731363
C        0.5798965188    0.2318068088   -0.1187383922
C       -0.5953459443    0.1007564965    0.8704984577
C       -1.3733691264   -1.2259569958    0.7536773099
N       -1.9817800133   -1.7392773881    1.7141128869
C        1.3387845812   -0.9463804749   -0.6597999336
C        0.5532908356   -0.3498066421   -1.5034079031
H        1.1040072225    1.1787542899    0.0508542778
H       -0.2182256008    0.1790890514    1.8964539520
H       -1.4107513645   -1.6852710036   -0.2477118909
H        2.0725002606   -1.7081883589   -0.4417091425
H        0.1576354431   -0.2471807072   -2.5026808477
13   
Iteration 48 Energy -340.92204650
C       -2.2717067664    2.0607242683    0.4741834442
N       -1.5126619720    1.1787648335    0.6648215488
C        0.5800437724    0.2317303815   -0.1188711757
C       -0.5953198161    0.1002877194    0.8701324214
C       -1.3733319142   -1.2256948430    0.7534375156
N       -1.9843963656   -1.7381822101    1.7131539227
C        1.3386291254   -0.9463119879   -0.6602547991
C        0.5531287742   -0.3495435651   -1.5035879020
H        1.1036608034    1.1783949199    0.0510459689
H       -0.2192207836    0.1792285896    1.8960927250
H       -1.4072995762   -1.6866396684   -0.2448855299
H        2.0725977366   -1.7080313669   -0.4426251296
H        0.1573476812   -0.2468825659   -2.5029857300
13   
Iteration 47 Energy -340.92203067
C       -2.2714841261    2.0609329867    0.4745238418
N       -1.5126203569    1.1787825676    0.6650141322
C        0.5799552099    0.2317517393   -0.1189325484
C       -0.5953063570    0.1002408803    0.8702036830
C       -1.3731905553   -1.2259033626    0.7535623456
N       -1.9864228697   -1.7370735523    1.7125931796
C        1.3385399425   -0.9462194507   -0.6604793836
C        0.5529381719   -0.3494148104   -1.5036957656
H        1.1035682836    1.1784178549    0.0509808745
H       -0.2190696931    0.1791924636    1.8961165355
H       -1.4050014719   -1.6881980100   -0.2442101106
H        2.0725286339   -1.7079581156   -0.4429788720
H        0.1570358873   -0.2467066862   -2.5030406315
13   
Iteration 46 Energy -340.92201948
C       -2.2713290395    2.0610801614    0.4747637004
N       -1.5125916180    1.1787954751    0.6651490991
C        0.5798921652    0.2317674961   -0.1189761879
C       -0.5952950509    0.1002079304    0.8702569006
C       -1.3730866673   -1.2260574211    0.7536512814