13   
IRC reactant Energy -340.92496249
C       -2.2813955417    2.1010245773    0.4031216338
N       -1.5377788801    1.2133291261    0.6268508017
C        0.5744025579    0.2398730104   -0.1097275040
C       -0.6270072604    0.1345004060    0.8524805541
C       -1.3818865572   -1.1948887106    0.7085407917
N       -1.3511665014   -2.0910224454    1.5768478184
C        1.3272100278   -0.9735187870   -0.5749823059
C        0.5882021132   -0.3947426252   -1.4701848774
H        1.1036285970    1.1854264623    0.0500517814
H       -0.2672281668    0.2068452130    1.8845810601
H       -1.9574834921   -1.3238341110   -0.2206655067
H        2.0271539229   -1.7453158559   -0.2924265548
H        0.2248198800   -0.3298317550   -2.4848304120
13   
IRC product Energy -340.92257160
C       -2.2131870660    2.1041292850    0.6437050978
N       -1.4872228870    1.1846300724    0.7724129318
C        0.5539788986    0.2407609527   -0.1536964848
C       -0.5729711659    0.0987709711    0.8919967324
C       -1.2818750926   -1.2553674352    0.8079268143
N       -2.5013506123   -1.4381905274    0.6116619848
C        1.2405439205   -0.9395573580   -0.7822886400
C        0.4200554709   -0.2921726258   -1.5502926968
H        1.1114321378    1.1677059525    0.0175427183
H       -0.1252500059    0.1549600115    1.8952332060
H       -0.6146653781   -2.1206867521    0.9472043690
H        1.9617520005   -1.7309733580   -0.6407979893
H       -0.0497695213   -0.1461646840   -2.5109507631
