13   
Iteration 285 Energy -340.95042453
C       -3.0162798065   -0.3303223119   -0.3790110074
N       -1.9289240740   -0.0219134296   -0.0504049697
C        0.4370241452   -0.4088886006   -0.5237136413
C       -0.5990907106    0.3251123987    0.3430442048
C       -0.4047485221   -0.0351947681    1.8259604794
N        0.0463967709    0.7694493408    2.6676006534
C        0.9914063598    0.2303423584   -1.7676007505
C        1.7977875247    0.1886216151   -0.7512287686
H        0.3157117090   -1.4955987133   -0.4785135573
H       -0.4724063235    1.4057683371    0.2301154409
H       -0.6593328464   -1.0681468071    2.1103969523
H        0.7861557519    0.4846189249   -2.7957604530
H        2.7624928911    0.3832218339   -0.3090372436
