13   
Iteration 0 Energy -340.92650449
C       -3.0162798065   -0.3303223119   -0.3790110074
N       -1.9289240740   -0.0219134296   -0.0504049697
C        0.4370241452   -0.4088886006   -0.5237136413
C       -0.5990907106    0.3251123987    0.3430442048
C       -0.4047485221   -0.0351947681    1.8259604794
N        0.0463967709    0.7694493408    2.6676006534
C        0.9914063598    0.2303423584   -1.7676007505
C        1.7977875247    0.1886216151   -0.7512287686
H        0.3157117090   -1.4955987133   -0.4785135573
H       -0.4724063235    1.4057683371    0.2301154409
H       -0.6593328464   -1.0681468071    2.1103969523
H        0.7861557519    0.4846189249   -2.7957604530
H        2.7624928911    0.3832218339   -0.3090372436
13   
Iteration 1 Energy -340.92653126
C       -3.0182084928   -0.3356056108   -0.3778936742
N       -1.9297433472   -0.0226286075   -0.0491813949
C        0.4358302058   -0.4059678969   -0.5239219309
C       -0.6007344422    0.3258059163    0.3434377546
C       -0.4029993734   -0.0333125193    1.8255874220
N        0.0502055879    0.7682447606    2.6688510289
C        0.9934284020    0.2302254376   -1.7667622198
C        1.7973513985    0.1876769558   -0.7509474870
H        0.3121543534   -1.4930027954   -0.4773968958
H       -0.4727190402    1.4064746763    0.2319168428
H       -0.6571207491   -1.0677109591    2.1045435237
H        0.7900418307    0.4843512454   -2.7960547557
H        2.7626378204    0.3805767700   -0.3075074748
13   
Iteration 2 Energy -340.92653396
C       -3.0180407816   -0.3379301034   -0.3769005461
N       -1.9295159801   -0.0224675272   -0.0488446594
C        0.4350506568   -0.4084081114   -0.5244771694
C       -0.6006226787    0.3249525223    0.3426234214
C       -0.4010658926   -0.0340581002    1.8245797857
N        0.0555295772    0.7716346945    2.6617335417
C        0.9930478678    0.2317152943   -1.7642476448
C        1.7959312223    0.1864062398   -0.7479851956
H        0.3106225383   -1.4957618253   -0.4796842252
H       -0.4708229318    1.4055807149    0.2308761013
H       -0.6556209875   -1.0680599513    2.1052082541
H        0.7900198489    0.4898622540   -2.7927322699
H        2.7603337254    0.3792583903   -0.3023242213
13   
Iteration 3 Energy -340.92653731
C       -3.0177663527   -0.3406160664   -0.3751598210
N       -1.9299948014   -0.0224613763   -0.0480150941
C        0.4347659452   -0.4078269906   -0.5251656079
C       -0.6011404164    0.3254073503    0.3424115880
C       -0.3998561430   -0.0332457635    1.8246903852
N        0.0573004250    0.7702717715    2.6635672505
C        0.9941005750    0.2319851184   -1.7644737495
C        1.7964557313    0.1855595686   -0.7475925523
H        0.3092387967   -1.4950123250   -0.4806128113
H       -0.4716479370    1.4060453795    0.2302770150
H       -0.6547012836   -1.0674630647    2.1041056957
H        0.7918082340    0.4908856059   -2.7928148615
H        2.7605261910    0.3774661724   -0.3010662717
13   
Iteration 4 Energy -340.92653967
C       -3.0172483740   -0.3471249555   -0.3709330794
N       -1.9309986474   -0.0228225885   -0.0457564595
C        0.4338117328   -0.4064508429   -0.5266983616
C       -0.6021250062    0.3260352318    0.3423874441
C       -0.3975350403   -0.0329854894    1.8246355159
N        0.0619474519    0.7699781174    2.6626233159
C        0.9968014968    0.2334663502   -1.7643554462
C        1.7976724521    0.1831805152   -0.7462715878
H        0.3052389874   -1.4932438587   -0.4839117848
H       -0.4732895026    1.4067132457    0.2302029337
H       -0.6521429666   -1.0672795521    2.1040083519
H        0.7965347106    0.4951396436   -2.7923068812
H        2.7612692202    0.3720961996   -0.2976909359
13   
Iteration 5 Energy -340.92654104
C       -3.0162055974   -0.3539434660   -0.3665238759
N       -1.9312153471   -0.0233505570   -0.0437169936
C        0.4326995296   -0.4072648186   -0.5283925017
C       -0.6019727795    0.3261471882    0.3417219444
C       -0.3941623260   -0.0318817962    1.8239730233
N        0.0684010353    0.7698260783    2.6614329668
C        0.9986684779    0.2356239072   -1.7630456606
C        1.7979621554    0.1803852924   -0.7438485175
H        0.3013753897   -1.4938568920   -0.4887993383
H       -0.4732105351    1.4067255170    0.2287220400
H       -0.6497130858   -1.0657425786    2.1039079405
H        0.8001513685    0.5022129497   -2.7900759892
H        2.7608043258    0.3669421103   -0.2926829484
13   
Iteration 6 Energy -340.92654218
C       -3.0156527627   -0.3588223916   -0.3631784726
N       -1.9313313567   -0.0242904434   -0.0419742116
C        0.4320097863   -0.4072790766   -0.5296095358
C       -0.6016352394    0.3259218215    0.3417438187
C       -0.3920272465   -0.0317248867    1.8236442710
N        0.0726999615    0.7708286854    2.6591704063
C        1.0004334658    0.2378852625   -1.7620564617
C        1.7987662418    0.1780020219   -0.7424546236
H        0.2983599714   -1.4936717530   -0.4932421668
H       -0.4735112583    1.4065189695    0.2284508714
H       -0.6477027645   -1.0651034795    2.1052946678
H        0.8032521484    0.5083446909   -2.7883598608
H        2.7615273753    0.3617616731   -0.2899016734
13   
Iteration 7 Energy -340.92654276
C       -3.0153471514   -0.3620300039   -0.3601051779
N       -1.9311013247   -0.0254717409   -0.0403588450
C        0.4315399979   -0.4074445952   -0.5308870175
C       -0.6008298632    0.3253642801    0.3418903573
C       -0.3898753389   -0.0316873757    1.8233860835
N        0.0767006632    0.7716796353    2.6572330371
C        1.0020432551    0.2402527138   -1.7611665593
C        1.7995144898    0.1760135085   -0.7412857997
H        0.2959927204   -1.4937035727   -0.4980265851
H       -0.4735222635    1.4060151790    0.2282202944
H       -0.6457305724   -1.0645410640    2.1068230295
H        0.8060280319    0.5142261580   -2.7867969363
H        2.7623041604    0.3571023950   -0.2876245149
13   
Iteration 8 Energy -340.92654295
C       -3.0153999034   -0.3627768763   -0.3585223870
N       -1.9308888591   -0.0262322194   -0.0395571523
C        0.4315466591   -0.4074387540   -0.5315665590
C       -0.6003777967    0.3250122349    0.3419121453
C       -0.3886035632   -0.0317196572    1.8232457080
N        0.0787406481    0.7718410881    2.6565155435
C        1.0028815484    0.2416353546   -1.7607580311
C        1.8001016533    0.1750945805   -0.7408654180
H        0.2951431257   -1.4936408206   -0.5004103592
H       -0.4735901020    1.4057095537    0.2280120911
H       -0.6444978122   -1.0644002833    2.1072770255
H        0.8072959962    0.5172338203   -2.7860409699
H        2.7630057095    0.3546391402   -0.2868149127
13   
Iteration 9 Energy -340.92654323
C       -3.0157605486   -0.3633946185   -0.3543419107
N       -1.9302812940   -0.0279417728   -0.0374588672
C        0.4315628085   -0.4072782368   -0.5336061640
C       -0.5992878782    0.3242344809    0.3418560637
C       -0.3849209677   -0.0321390814    1.8227906111
N        0.0845711851    0.7714293311    2.6548790514
C        1.0052172273    0.2448626664   -1.7601127193
C        1.8014186356    0.1732862144   -0.7397953603
H        0.2930945721   -1.4933224296   -0.5063200654
H       -0.4736661860    1.4050500233    0.2276032692
H       -0.6408336844   -1.0645755047    2.1076951422
H        0.8110263546    0.5239110268   -2.7847296798
H        2.7643631492    0.3492862526   -0.2844406969
13   
Iteration 10 Energy -340.92654332
C       -3.0160940804   -0.3630180356   -0.3515365130
N       -1.9297872638   -0.0289680731   -0.0361097126
C        0.4318080695   -0.4070872265   -0.5350712581
C       -0.5985933817    0.3238230558    0.3415984518
C       -0.3820375452   -0.0326345568    1.8222778652
N        0.0889853200    0.7706288902    2.6537618724
C        1.0068446271    0.2471334632   -1.7597905392
C        1.8024975996    0.1721447231   -0.7392651856
H        0.2919425336   -1.4930055674   -0.5100588102
H       -0.4736287657    1.4047141064    0.2273098936
H       -0.6378520546   -1.0650551674    2.1073142349
H        0.8135230612    0.5284490333   -2.7839454601
H        2.7654869008    0.3456964523   -0.2830853111
13   
Iteration 11 Energy -340.92654332
C       -3.0161968569   -0.3620122388   -0.3502134760
N       -1.9293811517   -0.0290863204   -0.0354790067
C        0.4319872996   -0.4069096893   -0.5360821142
C       -0.5981271038    0.3237528118    0.3413517459
C       -0.3801660940   -0.0332579193    1.8218401867
N        0.0918688673    0.7695316852    2.6531626120
C        1.0077745507    0.2480868647   -1.7600095621
C        1.8029846042    0.1718776828   -0.7391894904
H        0.2914363896   -1.4927539165   -0.5119163178
H       -0.4732394394    1.4046761741    0.2273728663
H       -0.6358963141   -1.0657825281    2.1065727250
H        0.8150633662    0.5302750953   -2.7840340541
H        2.7658567175    0.3445058445   -0.2824337680
