3    
Iteration 0 Energy -92.35406017
C        0.0194876257    0.0214346630   -0.0000000000
N       -0.7454621472   -0.8199441009    0.0000000000
H        0.7259745215    0.7985094380   -0.0000000000
3    
Iteration 1 Energy -92.35406017
C        0.0194880620    0.0214351715    0.0000000000
N       -0.7454617131   -0.8199436269    0.0000000000
H        0.7259736510    0.7985084555   -0.0000000000
