13   
IRC reactant Energy -341.00773360
C       -2.3690021417    1.3691806349    1.5268307373
N       -2.7234496635    2.4210193853    1.8988940499
C        1.0308252346    0.4882619442   -0.7790979816
C       -0.1194739022    0.8042630564   -0.1287879567
C       -1.0370669079   -0.1537072596    0.4467264771
N       -2.0784667469    0.1126868949    1.1767982767
C        1.5290365392   -1.8838968062   -0.1679322148
C        1.6522203330   -0.8268284500   -0.9547817208
H        1.5735490527    1.3094230037   -1.2447514057
H       -0.4033788174    1.8518744704   -0.0617619839
H       -0.8742873651   -1.2097221497    0.2369197746
H        1.9258848213   -2.8906709973   -0.1239761139
H        2.3283854673   -0.9078045359   -1.8140570801
13   
IRC product Energy -340.99817240
C       -2.4160309947    1.4017001153    1.3288511238
N       -2.7124229634    2.4736337977    1.7102363136
C        1.3058594071    0.1668589328   -0.4852620727
C        0.0478722601    0.6062584768    0.1332168624
C       -1.0534036856   -0.2119829265    0.3820423989
N       -2.2109141101    0.1548580017    0.9420280045
C        1.8161859554   -1.2688292997   -0.3284891237
C        1.3424049980   -0.9860214735   -1.4931058782
H        2.0450398614    0.9614493343   -0.5930249303
H       -0.0238769447    1.6549024676    0.4175111594
H       -1.0091396480   -1.2636563610    0.1081786147
H        2.2396784090   -1.9535687958    0.3900091736
H        1.0635233589   -1.2515230788   -2.5011687880
