13   
Iteration 41 Energy -341.00773360
C       -2.3690021417    1.3691806349    1.5268307373
N       -2.7234496635    2.4210193853    1.8988940499
C        1.0308252346    0.4882619442   -0.7790979816
C       -0.1194739022    0.8042630564   -0.1287879567
C       -1.0370669079   -0.1537072596    0.4467264771
N       -2.0784667469    0.1126868949    1.1767982767
C        1.5290365392   -1.8838968062   -0.1679322148
C        1.6522203330   -0.8268284500   -0.9547817208
H        1.5735490527    1.3094230037   -1.2447514057
H       -0.4033788174    1.8518744704   -0.0617619839
H       -0.8742873651   -1.2097221497    0.2369197746
H        1.9258848213   -2.8906709973   -0.1239761139
H        2.3283854673   -0.9078045359   -1.8140570801
13   
Iteration 40 Energy -341.00773341
C       -2.3692579061    1.3696860035    1.5267194444
N       -2.7233404760    2.4213704491    1.8989193939
C        1.0302732878    0.4887455252   -0.7786490272
C       -0.1187867493    0.8042615892   -0.1287611350
C       -1.0377425603   -0.1535334011    0.4467465183
N       -2.0789817109    0.1129440203    1.1762021112
C        1.5298739857   -1.8848460289   -0.1672629114
C        1.6512164255   -0.8268367448   -0.9543815842
H        1.5728654432    1.3091840578   -1.2447244415
H       -0.4026275650    1.8520987142   -0.0606553739
H       -0.8753725926   -1.2099725762    0.2364200636
H        1.9283622342   -2.8896358618   -0.1249953568
H        2.3282940874   -0.9093865554   -1.8145548436
13   
Iteration 39 Energy -341.00767882
C       -2.3723722434    1.3705064567    1.5210436503
N       -2.7211459411    2.4223769015    1.8981617467
C        1.0322208505    0.4877281034   -0.7748515720
C       -0.1157773484    0.8035378874   -0.1217172408
C       -1.0415488099   -0.1540812850    0.4426530569
N       -2.0872451068    0.1140608520    1.1656083604
C        1.5483511774   -1.8791952216   -0.1583248283
C        1.6467888432   -0.8295889765   -0.9583200058
H        1.5785489742    1.3083587288   -1.2340276954
H       -0.3952163475    1.8519454217   -0.0464742900
H       -0.8823663862   -1.2099767392    0.2275647557
H        1.9444938426   -2.8846742704   -0.1141008908
H        2.3000443987   -0.9169186678   -1.8361921890
13   
Iteration 38 Energy -341.00762617
C       -2.3758141591    1.3735687484    1.5182019933
N       -2.7212337853    2.4256377135    1.8975846126
C        1.0317746933    0.4853626589   -0.7707723911
C       -0.1140417683    0.8024990723   -0.1162847549
C       -1.0464728415   -0.1534435716    0.4410535401
N       -2.0947462189    0.1170519105    1.1590781859
C        1.5600011320   -1.8787793751   -0.1528609352
C        1.6444415834   -0.8328176232   -0.9597524042
H        1.5794317877    1.3074153326   -1.2313382777
H       -0.3887836342    1.8517858394   -0.0363830361
H       -0.8912488551   -1.2087564091    0.2230902548
H        1.9649668690   -2.8828406500   -0.1163915781
H        2.2865011005   -0.9226044557   -1.8442023515
13   
Iteration 37 Energy -341.00755771
C       -2.3786269737    1.3746137695    1.5132758803
N       -2.7200561237    2.4262946342    1.8972939549
C        1.0337993801    0.4847999385   -0.7670463358
C       -0.1109859062    0.8013716868   -0.1102945697
C       -1.0495297036   -0.1537985974    0.4379121744
N       -2.1015882249    0.1183554467    1.1499316987
C        1.5745510139   -1.8744843075   -0.1481109261
C        1.6413910389   -0.8345537324   -0.9640697430
H        1.5832216902    1.3061760009   -1.2211328240
H       -0.3822263637    1.8512805002   -0.0241120735
H       -0.8969591612   -1.2094927141    0.2161949074
H        1.9773993298   -2.8764604687   -0.1046306495
H        2.2643859076   -0.9300229658   -1.8641886362
13   
Iteration 36 Energy -341.00744486
C       -2.3834021325    1.3786248273    1.5084750737
N       -2.7204560592    2.4304094765    1.8965339818
C        1.0340989997    0.4812115946   -0.7622389165
C       -0.1090329011    0.7998419572   -0.1028635759
C       -1.0557840539   -0.1529643404    0.4351094950
N       -2.1117377844    0.1226390141    1.1404522747
C        1.5957181599   -1.8723408357   -0.1419042904
C        1.6376097210   -0.8388015252   -0.9664693936
H        1.5875570935    1.3037666151   -1.2129224488
H       -0.3743758672    1.8504952856   -0.0107654947
H       -0.9078082102   -1.2076701141    0.2095610196
H        2.0033861894   -2.8749377113   -0.1037178544
H        2.2390027485   -0.9361950526   -1.8782270127
13   
Iteration 35 Energy -341.00732046
C       -2.3878929442    1.3823722305    1.5039304573
N       -2.7207187771    2.4338120206    1.8959494078
C        1.0341885268    0.4786786133   -0.7566331689
C       -0.1061853701    0.7986164830   -0.0951839292
C       -1.0618323143   -0.1519647322    0.4323574341
N       -2.1212134666    0.1265417603    1.1306951064
C        1.6122293869   -1.8709692511   -0.1354418340
C        1.6341618972   -0.8430631496   -0.9688953826
H        1.5882743567    1.3006098434   -1.2054191960
H       -0.3653342742    1.8505132184    0.0040445917
H       -0.9186607742   -1.2070949197    0.2021235048
H        2.0283016254   -2.8680120545   -0.1025226190
H        2.2194580313   -0.9459608712   -1.8939815145
13   
Iteration 34 Energy -341.00718650
C       -2.3915235769    1.3840599358    1.4984896131
N       -2.7206844191    2.4348323773    1.8958453919
C        1.0365734209    0.4774594209   -0.7517037277
C       -0.1038774303    0.7972619277   -0.0902446296
C       -1.0653315542   -0.1519813527    0.4289280010
N       -2.1284063990    0.1286975428    1.1213715711
C        1.6313869139   -1.8661486920   -0.1321424282
C        1.6300736558   -0.8451515022   -0.9729366912
H        1.5964377347    1.3013815423   -1.1947481463
H       -0.3595846978    1.8491784491    0.0144607414
H       -0.9243706899   -1.2059543054    0.1968225804
H        2.0448890016   -2.8669655967   -0.0935443888
H        2.1891939439   -0.9525905560   -1.9095750292
13   
Iteration 33 Energy -341.00696873
C       -2.3975306789    1.3899163133    1.4930310178
N       -2.7219051227    2.4403664953    1.8952470888
C        1.0361905145    0.4722462359   -0.7458497671
C       -0.1014209058    0.7954652088   -0.0802116589
C       -1.0737741538   -0.1499677768    0.4253179662
N       -2.1410908407    0.1351694795    1.1093986599
C        1.6570045378   -1.8644625441   -0.1247729552
C        1.6252959880   -0.8518450312   -0.9744555028
H        1.5991854996    1.2940644884   -1.1828483366
H       -0.3492122794    1.8486875781    0.0318384852
H       -0.9389077572   -1.2040965031    0.1868373712
H        2.0796379615   -2.8591984734   -0.0952025414
H        2.1613031405   -0.9622662797   -1.9273069690
13   
Iteration 32 Energy -341.00670186
C       -2.4038890823    1.3945549252    1.4862177717
N       -2.7232568079    2.4437823065    1.8952297332
C        1.0374509296    0.4693144335   -0.7367927741
C       -0.0981562217    0.7939737219   -0.0715467722
C       -1.0815256598   -0.1483710362    0.4203990240
N       -2.1530669155    0.1404680469    1.0956413504
C        1.6842201197   -1.8606852452   -0.1185809136
C        1.6191599564   -0.8571453142   -0.9779093668
H        1.6049294803    1.2927175328   -1.1718513151
H       -0.3378987052    1.8479646505    0.0503641339
H       -0.9523501629   -1.2014762586    0.1770079333
H        2.1140439867   -2.8545347618   -0.0926684137
H        2.1251149860   -0.9764838104   -1.9444875330
13   
Iteration 31 Energy -341.00637311
C       -2.4099971485    1.3997905345    1.4798516157
N       -2.7245509691    2.4482066352    1.8951599281
C        1.0386533061    0.4639038939   -0.7300489212
C       -0.0960945853    0.7921035693   -0.0630526362
C       -1.0896757643   -0.1460026969    0.4150172978
N       -2.1654725196    0.1468011861    1.0825421601
C        1.7156182056   -1.8565156624   -0.1136301928
C        1.6125568652   -0.8640508901   -0.9794610989
H        1.6152735977    1.2845839911   -1.1517489386
H       -0.3295221192    1.8468223490    0.0647328653
H       -0.9648576478   -1.1988656150    0.1662549297
H        2.1498332643   -2.8464636921   -0.0898804305
H        2.0830114184   -0.9862344115   -1.9647137208
13   
Iteration 30 Energy -341.00606646
C       -2.4157447954    1.4042564969    1.4750196023
N       -2.7269135894    2.4516412413    1.8949375828
C        1.0387386472    0.4613976061   -0.7208328673
C       -0.0945192397    0.7920387650   -0.0558484086
C       -1.0974151483   -0.1435847854    0.4104814374
N       -2.1760159329    0.1521491653    1.0709453067
C        1.7411924382   -1.8540215454   -0.1079592541
C        1.6071420247   -0.8701721457   -0.9813621592
H        1.6170926347    1.2839349337   -1.1455295096
H       -0.3182764775    1.8474295266    0.0831914552
H       -0.9786964878   -1.1950632177    0.1558337294
H        2.1834349011   -2.8435339693   -0.0930801369
H        2.0547569285   -1.0023928804   -1.9747739202
13   
Iteration 29 Energy -341.00572731
C       -2.4199903914    1.4083088340    1.4704783203
N       -2.7276690322    2.4550751651    1.8948155544
C        1.0382993975    0.4550287933   -0.7162634972
C       -0.0922534928    0.7906303245   -0.0481250307
C       -1.1042429983   -0.1403561568    0.4043586529
N       -2.1852088450    0.1573175595    1.0607348591
C        1.7662971884   -1.8528843631   -0.1069163590
C        1.6012838925   -0.8752367957   -0.9787868675
H        1.6298110378    1.2721694393   -1.1222155632
H       -0.3137050911    1.8467843044    0.0895450649
H       -0.9879742974   -1.1916826848    0.1436727788
H        2.2182446563   -2.8336885759   -0.0897943514
H        2.0118838791   -1.0073866527   -1.9904807035
13   
Iteration 28 Energy -341.00522215
C       -2.4279671171    1.4125407373    1.4623104307
N       -2.7309573380    2.4578458144    1.8930607085
C        1.0434396755    0.4545448144   -0.6993137244
C       -0.0921800171    0.7927695881   -0.0441945083
C       -1.1130626528   -0.1370014428    0.3965149025
N       -2.1971562664    0.1627305150    1.0455726370
C        1.8095662856   -1.8441281329   -0.0979829564
C        1.5909152827   -0.8849090168   -0.9798114081
H        1.6413105101    1.2722161538   -1.1023698364
H       -0.3025107046    1.8490286805    0.1096054419
H       -1.0012384427   -1.1872136928    0.1312634287
H        2.2588306689   -2.8286983580   -0.0974487910
H        1.9557860194   -1.0356464690   -2.0061834667
13   
Iteration 27 Energy -341.00480338
C       -2.4321642532    1.4149781916    1.4579546978
N       -2.7322368549    2.4596404386    1.8927662458
C        1.0431181496    0.4500445100   -0.6930779249
C       -0.0911861316    0.7937483131   -0.0376061584
C       -1.1195792859   -0.1331950848    0.3886892205
N       -2.2057931684    0.1669121781    1.0344343370
C        1.8391643024   -1.8407752265   -0.0965868063
C        1.5836665360   -0.8908473308   -0.9762343443
H        1.6549963749    1.2652481581   -1.0824669689
H       -0.2968322009    1.8502830297    0.1181515843
H       -1.0105246763   -1.1810419151    0.1160977783
H        2.2963249680   -2.8235268996   -0.0976850469
H        1.9058221439   -1.0473891714   -2.0134137560
13   
Iteration 26 Energy -341.00436220
C       -2.4361442991    1.4167018079    1.4522389554
N       -2.7329257838    2.4601278511    1.8917129836
C        1.0455545815    0.4483802289   -0.6837557456
C       -0.0895090668    0.7955800330   -0.0335833674
C       -1.1248515215   -0.1299293882    0.3807642297
N       -2.2128944443    0.1699129175    1.0226357568
C        1.8698033213   -1.8339830741   -0.0927242509
C        1.5753576843   -0.8967924000   -0.9734268233
H        1.6676047164    1.2587150337   -1.0597238397
H       -0.2908077880    1.8522831383    0.1286908972
H       -1.0172148200   -1.1775158891    0.1022046482
H        2.3268689171   -2.8132111234   -0.0991044297
H        1.8539344063   -1.0661899447   -2.0249061565
13   
Iteration 25 Energy -341.00399336
C       -2.4391347010    1.4168155028    1.4471866113
N       -2.7335481022    2.4593096356    1.8909063763
C        1.0486817105    0.4478121486   -0.6755905141
C       -0.0890956976    0.7975507665   -0.0310039567
C       -1.1281254894   -0.1279218625    0.3736514054
N       -2.2180965114    0.1714589387    1.0128319228
C        1.8943162862   -1.8263003773   -0.0905661691
C        1.5680919849   -0.9020695094   -0.9722284556
H        1.6795036356    1.2585910017   -1.0454902398
H       -0.2853583348    1.8537420436    0.1376744371
H       -1.0218925754   -1.1731388836    0.0911808406
H        2.3511150698   -2.8099894787   -0.1002462036
H        1.8083186282   -1.0817807349   -2.0272831967
13   
Iteration 24 Energy -341.00357483
C       -2.4420678230    1.4176156495    1.4419615347
N       -2.7334070654    2.4585466138    1.8903139367
C        1.0515839347    0.4474902092   -0.6662949638
C       -0.0867835852    0.7996765780   -0.0294848298
C       -1.1323139876   -0.1247602263    0.3654934203
N       -2.2231761249    0.1733073453    1.0018932802
C        1.9216109897   -1.8198466767   -0.0894405135
C        1.5598131431   -0.9063051667   -0.9694402579
H        1.6920179198    1.2526156072   -1.0214527703
H       -0.2807497891    1.8558635804    0.1449818893
H       -1.0263734362   -1.1704576136    0.0784177903
H        2.3775591229   -2.7988452421   -0.1001806739
H        1.7570626046   -1.1008214670   -2.0357449843
13   
Iteration 23 Energy -341.00323036
C       -2.4448548133    1.4174914383    1.4374591519
N       -2.7341124379    2.4577371435    1.8898002946
C        1.0566530725    0.4466952625   -0.6563532096
C       -0.0885109121    0.8021345497   -0.0278440770
C       -1.1347741163   -0.1227205276    0.3589156722
N       -2.2276931285    0.1747094125    0.9941258162
C        1.9415776429   -1.8129582311   -0.0878417467
C        1.5538286070   -0.9121630131   -0.9665012479
H        1.7031002849    1.2529918649   -1.0117753944
H       -0.2778056142    1.8578031845    0.1510264064
H       -1.0299753434   -1.1654393485    0.0682100917
H        2.4002084899   -2.7968816408   -0.1072834656
H        1.7171341723   -1.1153209037   -2.0309154338
13   
Iteration 22 Energy -341.00281359
C       -2.4479106846    1.4182352341    1.4330367344
N       -2.7344638788    2.4571077416    1.8886196167
C        1.0581724471    0.4476546838   -0.6465047989
C       -0.0867937616    0.8058844204   -0.0304767810
C       -1.1389890497   -0.1190404039    0.3510492641
N       -2.2310305310    0.1759539373    0.9851467280
C        1.9731010453   -1.8075563523   -0.0879388074
C        1.5455209195   -0.9154449237   -0.9609647288
H        1.7136987194    1.2477940922   -0.9867913982
H       -0.2743437148    1.8614865938    0.1542765369
H       -1.0332484195   -1.1633329310    0.0587515861
H        2.4218131184   -2.7898538503   -0.1133152749
H        1.6692496939   -1.1348090510   -2.0338658192
13   
Iteration 21 Energy -341.00248499
C       -2.4497507070    1.4177738564    1.4284979193
N       -2.7331448406    2.4552530786    1.8889361272
C        1.0609452114    0.4478109841   -0.6394859135
C       -0.0853721059    0.8079779645   -0.0290849818
C       -1.1412397622   -0.1170074427    0.3441257090
N       -2.2349038672    0.1768756302    0.9753443176
C        1.9934811288   -1.7998362885   -0.0876255447
C        1.5386327715   -0.9192247098   -0.9585268152
H        1.7227784750    1.2454158811   -0.9732223360
H       -0.2701211508    1.8630372093    0.1617153639
H       -1.0359960489   -1.1603586960    0.0478780446
H        2.4404160070   -2.7825802594   -0.1149881950
H        1.6290507924   -1.1510580168   -2.0325408374
13   
Iteration 20 Energy -341.00193207
C       -2.4521250746    1.4159686479    1.4194579598
N       -2.7298279100    2.4509793786    1.8892652741
C        1.0660592102    0.4478589968   -0.6321065318
C       -0.0837069206    0.8109858024   -0.0255536187
C       -1.1438305637   -0.1143865466    0.3314460259
N       -2.2418261335    0.1781335372    0.9569469683
C        2.0306391044   -1.7807925579   -0.0884524219
C        1.5267408263   -0.9267869919   -0.9549738262
H        1.7448503171    1.2416901644   -0.9441117135
H       -0.2639127303    1.8648538519    0.1743215761
H       -1.0389436271   -1.1548653074    0.0278221106
H        2.4717001641   -2.7682750090   -0.1174436900
H        1.5489592412   -1.1812847755   -2.0255952549
13   
Iteration 19 Energy -341.00149522
C       -2.4536154782    1.4141722608    1.4125093135
N       -2.7250404934    2.4462944194    1.8923911352
C        1.0696194015    0.4473686290   -0.6268201720
C       -0.0799713685    0.8120575845   -0.0196873754
C       -1.1464954827   -0.1118643821    0.3196950980
N       -2.2488420746    0.1799534310    0.9384303754
C        2.0567818822   -1.7661039720   -0.0924572277
C        1.5167328881   -0.9317400600   -0.9543489564
H        1.7590039006    1.2382942827   -0.9262194996
H       -0.2556206787    1.8646557131    0.1897009404
H       -1.0438517204   -1.1491849371    0.0065275265
H        2.5015569603   -2.7535323220   -0.1110466249
H        1.4845181672   -1.2062914564   -2.0176516752
13   
Iteration 18 Energy -341.00116495
C       -2.4535083744    1.4128809537    1.4076260625
N       -2.7202124563    2.4418209783    1.8961778488
C        1.0701002651    0.4488636364   -0.6252916692
C       -0.0750369799    0.8126804641   -0.0148181044
C       -1.1483782791   -0.1099520211    0.3103753806
N       -2.2532908130    0.1814747917    0.9231311473
C        2.0749306770   -1.7568793999   -0.0996651125
C        1.5084062644   -0.9324247698   -0.9560291316
H        1.7636027233    1.2356306902   -0.9166730690
H       -0.2455438483    1.8634048682    0.2092861927
H       -1.0490953579   -1.1458676260   -0.0125892040
H        2.5221484041   -2.7393516557   -0.0945568485
H        1.4406536783   -1.2282017191   -2.0159506347
13   
Iteration 17 Energy -341.00080663
C       -2.4538290759    1.4116069001    1.4017307784
N       -2.7166491701    2.4386112444    1.8965950364
C        1.0704919171    0.4462233377   -0.6263897804
C       -0.0694516739    0.8100755275   -0.0068069561
C       -1.1495496368   -0.1100845637    0.3035219491
N       -2.2584198197    0.1831498686    0.9080258107
C        2.0917296044   -1.7339884635   -0.0961803404
C        1.4974059943   -0.9397064455   -0.9615058296
H        1.7734315736    1.2325757390   -0.9079346832
H       -0.2341872139    1.8588212535    0.2290150242
H       -1.0534805826   -1.1425425141   -0.0265433243
H        2.5354539052   -2.7225464049   -0.0928333050
H        1.4018300817   -1.2481162881   -2.0096715219
13   
Iteration 16 Energy -341.00031460
C       -2.4516905916    1.4094267728    1.3964603621
N       -2.7102578015    2.4329987903    1.9008305944
C        1.0722284174    0.4447984286   -0.6309710886
C       -0.0623671109    0.8062209503    0.0060326310
C       -1.1503825490   -0.1094694867    0.2922755355
N       -2.2641960736    0.1861108078    0.8882944155
C        2.1042489186   -1.7140833594   -0.1031587351
C        1.4872232225   -0.9431239651   -0.9707277301
H        1.7802992326    1.2267855123   -0.9003991495
H       -0.2177543246    1.8518388750    0.2618669802
H       -1.0606860563   -1.1381289856   -0.0542214876
H        2.5583365307   -2.6939903044   -0.0641431210
H        1.3497740892   -1.2753048449   -2.0111163489
13   
Iteration 15 Energy -340.99974612
C       -2.4492315953    1.4082984175    1.3935017851
N       -2.7060510386    2.4295528121    1.9026059506
C        1.0649265144    0.4441729683   -0.6391453013
C       -0.0529703667    0.8012535213    0.0122350858
C       -1.1529745126   -0.1103215499    0.2841777294
N       -2.2664810434    0.1876437254    0.8745387705
C        2.1124884572   -1.6971338700   -0.1098343892
C        1.4736882627   -0.9455053028   -0.9847977059
H        1.7851301229    1.2246256518   -0.8939737909
H       -0.1982975033    1.8421733370    0.2911001060
H       -1.0705979074   -1.1350465949   -0.0721743614
H        2.5756816463   -2.6731672174   -0.0361758080
H        1.3194648675   -1.2924667073   -2.0110352127
13   
Iteration 14 Energy -340.99920120
C       -2.4471493246    1.4072182003    1.3914455870
N       -2.7040354360    2.4273844799    1.9031055326
C        1.0727398460    0.4382394206   -0.6370628320
C       -0.0481219883    0.7958700439    0.0247000213
C       -1.1516858478   -0.1102829322    0.2786575082
N       -2.2689465761    0.1900408637    0.8651568306
C        2.1136057083   -1.6741683170   -0.1058938616
C        1.4683845397   -0.9522486884   -0.9937406820
H        1.7872404011    1.2146955783   -0.8948590755
H       -0.1873721233    1.8348738563    0.3155904099
H       -1.0738755775   -1.1328815814   -0.0911352927
H        2.5793370783   -2.6424843378   -0.0223627179
H        1.2946552036   -1.3121773954   -2.0225785700
13   
Iteration 13 Energy -340.99837070
C       -2.4431330629    1.4051741848    1.3900095960
N       -2.7004432186    2.4241607658    1.9045515278
C        1.0674029271    0.4351649493   -0.6508808276
C       -0.0414397983    0.7879948307    0.0310677255
C       -1.1536450273   -0.1123204776    0.2685460313
N       -2.2698796689    0.1911940662    0.8553826157
C        2.1136688938   -1.6523945108   -0.1176050445
C        1.4544806265   -0.9558163053   -1.0159656412
H        1.7999176452    1.2109837155   -0.8851519694
H       -0.1660927528    1.8201814042    0.3488835605
H       -1.0845168457   -1.1284902056   -0.1127360819
H        2.5978320357   -2.6129238861    0.0189437180
H        1.2606241497   -1.3288293402   -2.0240223523
13   
Iteration 12 Energy -340.99730381
C       -2.4395468782    1.4050565959    1.3896231418
N       -2.6970879006    2.4226532688    1.9052736433
C        1.0640134933    0.4320369898   -0.6576063589
C       -0.0319777459    0.7803156124    0.0356572367
C       -1.1558580961   -0.1129467561    0.2614037285
N       -2.2689173471    0.1923134606    0.8482145655
C        2.1136427130   -1.6325654225   -0.1241895107
C        1.4419978416   -0.9594858243   -1.0348180353
H        1.8033472830    1.1971885433   -0.8705135429
H       -0.1434600953    1.8069068327    0.3779943635
H       -1.0948852077   -1.1292966671   -0.1297770971
H        2.6063909560   -2.5705161460    0.0575495872
H        1.2371168874   -1.3475812963   -2.0477888637
13   
Iteration 11 Energy -340.99611656
C       -2.4369295881    1.4029040028    1.3896116174
N       -2.6945693426    2.4204142111    1.9072790513
C        1.0682946873    0.4227396104   -0.6595171460
C       -0.0291071241    0.7721475817    0.0419126277
C       -1.1563605256   -0.1145749394    0.2540343443
N       -2.2702141910    0.1930983041    0.8441357401
C        2.1062984616   -1.6082132679   -0.1315028771
C        1.4317653524   -0.9691285465   -1.0581255053
H        1.8180369171    1.1910854600   -0.8712008572
H       -0.1315566441    1.7928703370    0.4014338128
H       -1.1009397762   -1.1234545562   -0.1462515433
H        2.6146910268   -2.5411461502    0.0904968299
H        1.2153666500   -1.3546628560   -2.0512832368
13   
Iteration 10 Energy -340.99414006
C       -2.4309058463    1.4017357953    1.3914324434
N       -2.6869135262    2.4181382293    1.9115675362
C        1.0690554777    0.4144313678   -0.6715763479
C       -0.0222408278    0.7607083697    0.0439017750
C       -1.1586953960   -0.1165725532    0.2445874380
N       -2.2684576604    0.1936034639    0.8405075164
C        2.0979184068   -1.5860253339   -0.1526306906
C        1.4139866338   -0.9789973272   -1.0894248970
H        1.8318791724    1.1676027489   -0.8474807937
H       -0.1056465916    1.7727368722    0.4336281167
H       -1.1120804554   -1.1257878180   -0.1642253609
H        2.6197534061   -2.4713099476    0.1644576221
H        1.1871231103   -1.3661846762   -2.0937214999
13   
Iteration 9 Energy -340.99184366
C       -2.4256757920    1.3982753662    1.3938457888
N       -2.6790866161    2.4133482833    1.9183656052
C        1.0687187437    0.4052329335   -0.6800353281
C       -0.0152889238    0.7493311000    0.0418469568
C       -1.1610321738   -0.1190890364    0.2347017024
N       -2.2670888121    0.1925288833    0.8367410137
C        2.0872418012   -1.5698958006   -0.1767452730
C        1.3971653334   -0.9848903140   -1.1266490884
H        1.8514050270    1.1524938436   -0.8306096800
H       -0.0817122230    1.7520241391    0.4562233592
H       -1.1241887383   -1.1241501266   -0.1786450334
H        2.6242900781   -2.4107859303    0.2374686291
H        1.1600281993   -1.3703441502   -2.1154857944
13   
Iteration 8 Energy -340.98909980
C       -2.4200274824    1.3946162584    1.3968046307
N       -2.6704099145    2.4078023823    1.9261254138
C        1.0801805636    0.3908314588   -0.6799414539
C       -0.0083516003    0.7366552564    0.0434535085
C       -1.1603774341   -0.1203466128    0.2269859148
N       -2.2650106368    0.1918017995    0.8333523972
C        2.0726533581   -1.5474909142   -0.1966442461
C        1.3871443978   -0.9927143794   -1.1594241191
H        1.8680447317    1.1268108459   -0.8100698375
H       -0.0612517530    1.7339225578    0.4741719625
H       -1.1293556049   -1.1256056436   -0.1931414415
H        2.6101034229   -2.3290960350    0.3025049550
H        1.1314338555   -1.3831077830   -2.1531548265
13   
Iteration 7 Energy -340.98657529
C       -2.4162777341    1.3900699599    1.3991724362
N       -2.6642899011    2.4021965867    1.9329181528
C        1.0895197288    0.3761997679   -0.6780322029
C       -0.0036050416    0.7259006600    0.0437916724
C       -1.1595161023   -0.1221092020    0.2204384443
N       -2.2643857346    0.1903996657    0.8308094652
C        2.0593576112   -1.5266476568   -0.2122113040
C        1.3780792344   -0.9988506617   -1.1918361565
H        1.8895417036    1.1098952330   -0.7954903099
H       -0.0474907421    1.7198969830    0.4813631741
H       -1.1338540912   -1.1238969251   -0.2017510567
H        2.5997203360   -2.2710161088    0.3501561657
H        1.1079766365   -1.3879591107   -2.1683056228
13   
Iteration 6 Energy -340.98506592
C       -2.4142367786    1.3870881157    1.3994540992
N       -2.6612307636    2.3979793284    1.9366330961
C        1.0987153244    0.3671075918   -0.6719961756
C       -0.0001881423    0.7205187592    0.0455087589
C       -1.1573025563   -0.1226865376    0.2158741566
N       -2.2635508168    0.1898389353    0.8274493519
C        2.0517045748   -1.5133887660   -0.2180088204
C        1.3780845719   -1.0007135663   -1.2099034888
H        1.8975733870    1.1020314492   -0.7913511430
H       -0.0380888155    1.7119322148    0.4893039418
H       -1.1353848507   -1.1230055824   -0.2095648063
H        2.5906287456   -2.2361438849    0.3741476140
H        1.0880520236   -1.3964788661   -2.1765237266
13   
Iteration 5 Energy -340.98380020
C       -2.4123248916    1.3851832527    1.4002987324
N       -2.6582625134    2.3951138658    1.9398043358
C        1.1078613019    0.3577496576   -0.6661857568
C        0.0025638851    0.7154094945    0.0475891175
C       -1.1556760461   -0.1230349797    0.2133805401
N       -2.2626454916    0.1895516665    0.8257372409
C        2.0446797651   -1.5009502216   -0.2231429788
C        1.3775039040   -1.0042954950   -1.2225869613
H        1.9033462795    1.0918167430   -0.7872995883
H       -0.0312727794    1.7055705266    0.4952427075
H       -1.1354293704   -1.1230834608   -0.2156247795
H        2.5787232093   -2.2018695983    0.3933855340
H        1.0757086509   -1.4030822603   -2.1895752857
13   
Iteration 4 Energy -340.98281170
C       -2.4106894621    1.3839911391    1.4013630594
N       -2.6556624884    2.3933239689    1.9423063939
C        1.1144606369    0.3500793493   -0.6626174183
C        0.0047071875    0.7108761017    0.0491518033
C       -1.1548248210   -0.1233593671    0.2119759573
N       -2.2619602623    0.1893823095    0.8250733900
C        2.0387727028   -1.4911244482   -0.2277188967
C        1.3758885084   -1.0080837311   -1.2313502389
H        1.9085431908    1.0816589686   -0.7826487381
H       -0.0264473273    1.7005003437    0.4989365996
H       -1.1352429028   -1.1234909665   -0.2197119148
H        2.5684676209   -2.1726239958    0.4081952002
H        1.0687633201   -1.4070504810   -2.2019323391
13   
Iteration 3 Energy -340.98215298
C       -2.4097978223    1.3827314454    1.4015891861
N       -2.6541977669    2.3915456059    1.9441514564
C        1.1197771889    0.3446205782   -0.6587079769
C        0.0059126315    0.7084076524    0.0501599713
C       -1.1536394195   -0.1237222480    0.2101479422
N       -2.2616552816    0.1892572680    0.8238360056
C        2.0350765556   -1.4844965770   -0.2297351010
C        1.3751861894   -1.0092941358   -1.2397080561
H        1.9109806310    1.0788922299   -0.7835971633
H       -0.0216066975    1.6964664439    0.5035356331
H       -1.1366984063   -1.1230320148   -0.2231653760
H        2.5626068075   -2.1565124161    0.4189728251
H        1.0628312936   -1.4107846409   -2.2064564887
13   
Iteration 2 Energy -340.98170127
C       -2.4091852907    1.3816221157    1.4015046759
N       -2.6532350068    2.3899513800    1.9456007254
C        1.1239421449    0.3406203034   -0.6548072887
C        0.0066126267    0.7072103351    0.0510307518
C       -1.1524753279   -0.1239820659    0.2084692091
N       -2.2614523264    0.1891738496    0.8225144019
C        2.0329642213   -1.4806568137   -0.2306563662
C        1.3753279633   -1.0094503903   -1.2461125095
H        1.9110408509    1.0795661691   -0.7876815491
H       -0.0175630608    1.6935178759    0.5081195635
H       -1.1384362224   -1.1220511725   -0.2265180173
H        2.5589252388   -2.1477096599    0.4270989638
H        1.0583100926   -1.4137327355   -2.2075397026
13   
Iteration 1 Energy -340.97997362
C       -2.4078323953    1.3804679022    1.4045849335
N       -2.6493895622    2.3897615198    1.9489160425
C        1.1359404057    0.3229786583   -0.6580113351
C        0.0089649520    0.6934630983    0.0509726978
C       -1.1527052527   -0.1257219683    0.2065144035