13   
Frame  71 IRC: Energy =  -340.9498126582 ; -1.0195 kcal/mol
C       -2.3732654943    0.3438027855   -1.2635295025
N       -1.5457090456    0.4061998129   -0.4300578871
C        0.8900256051    0.2188863381   -0.0908735206
C       -0.5055114558    0.4864696888    0.5300527299
C       -0.7325276974   -0.4673023283    1.7100597793
N       -1.6780085290   -1.2733729777    1.8408718143
C        1.1205458509   -0.8382776118   -1.1280337490
C        1.1588888171    0.3869114861   -1.5569300790
H        1.6731086500    0.4471923806    0.6401550376
H       -0.5058421791    1.5055233851    0.9423242651
H        0.0457738835   -0.4120431824    2.4883022380
H        1.1802470769   -1.8983953765   -1.3190193887
H        1.2722745176    1.0944055995   -2.3633217374
