15   
Iteration 30 Energy -288.19389062
C       -0.7738104628   -0.2678248914    1.1442841652
C       -0.6425307436   -1.6930576934    1.5493991265
H       -0.0891695096    0.3693799196    1.7101739870
H       -1.3412933774   -2.4352291550    1.1797723767
H       -1.7894930764    0.1009007125    1.3329841614
H        0.1678704823   -2.0331517539    2.1811158815
N       -0.7782218927    1.3669074297   -0.7281859006
C       -0.5081893064   -0.0301206335   -0.3720435223
C        0.9049944816   -0.3007511173   -0.8083831249
C        1.3829840263    0.8289192776   -1.3582634486
C        0.2958037085    1.8163207846   -1.2773671509
H       -1.2100130328   -0.6566143565   -0.9404422156
H        1.4162016274   -1.2448461327   -0.6801857792
H        2.3660190855    1.0027286378   -1.7748494567
H        0.3580537340    2.8406766049   -1.6352576004
15   
Iteration 29 Energy -288.19389058
C       -0.7738727732   -0.2675745151    1.1444803335
C       -0.6426050343   -1.6928060386    1.5496598535
H       -0.0892352303    0.3696490680    1.7103465185
H       -1.3424906280   -2.4347376664    1.1816916928
H       -1.7895587949    0.1011449269    1.3330541162
H        0.1687405697   -2.0331003643    2.1800646007
N       -0.7780123947    1.3669854120   -0.7282055245
C       -0.5080649531   -0.0300127578   -0.3718058616
C        0.9050537269   -0.3008829282   -0.8082214055
C        1.3829689286    0.8285461786   -1.3586703435
C        0.2958951932    1.8160687661   -1.2778540654
H       -1.2098922377   -0.6565211541   -0.9401908725
H        1.4162101579   -1.2449791081   -0.6798366664
H        2.3659063275    1.0021376216   -1.7755743394
H        0.3581428226    2.8402842269   -1.6361461313
15   
Iteration 28 Energy -288.19389085
C       -0.7803086479   -0.2694287210    1.1399148683
C       -0.6428930643   -1.6928325181    1.5494723890
H       -0.1035282197    0.3736057978    1.7085994192
H       -1.3369858809   -2.4397780680    1.1805968416
H       -1.7994988033    0.0933356946    1.3206280796
H        0.1685078516   -2.0271238577    2.1830352250
N       -0.7818249596    1.3608843216   -0.7365637009
C       -0.5062550741   -0.0338394358   -0.3755389958
C        0.9113006046   -0.2975654316   -0.8017805301
C        1.3867284790    0.8337169776   -1.3507037153
C        0.2935003631    1.8151742879   -1.2793449503
H       -1.2010196485   -0.6656828694   -0.9465957469
H        1.4268144432   -1.2385571765   -0.6680326243
H        2.3716316194    1.0122260216   -1.7608432902
H        0.3524855127    2.8391107903   -1.6389786895
15   
Iteration 27 Energy -288.19388648
C       -0.7451531470   -0.2612822753    1.1648934653
C       -0.6443247464   -1.6956883553    1.5460045746
H       -0.0269524408    0.3478464421    1.7198538817
H       -1.3739074008   -2.4121539548    1.1852330192
H       -1.7440341949    0.1336350041    1.3872454850
H        0.1727175029   -2.0681346261    2.1503373423
N       -0.7564474079    1.3987098664   -0.6863103717
C       -0.5161718800   -0.0098493330   -0.3550858644
C        0.8743921538   -0.3157377551   -0.8382591144
C        1.3669900751    0.8060737430   -1.3915605832
C        0.3120287029    1.8231894372   -1.2654790526
H       -1.2523999279   -0.6081321509   -0.9103434438
H        1.3617745363   -1.2755014240   -0.7362364107
H        2.3408497870    0.9565183913   -1.8377305173
H        0.3923431805    2.8492189639   -1.6148567070
15   
Iteration 26 Energy -288.19388965
C       -0.7836688175   -0.2700810754    1.1370944837
C       -0.6349492033   -1.6902936442    1.5531151646
H       -0.1129923708    0.3809650851    1.7041579913
H       -1.3283888540   -2.4431606221    1.1954804437
H       -1.8061086973    0.0853672253    1.3137413047
H        0.1801248708   -2.0152801611    2.1868331717
N       -0.7886647612    1.3527396048   -0.7447478967
C       -0.5060636963   -0.0393634310   -0.3783034712
C        0.9150429809   -0.2947548229   -0.7982624517
C        1.3855120419    0.8376059326   -1.3488211301
C        0.2857763747    1.8123112963   -1.2842920574
H       -1.1940067418   -0.6778714552   -0.9500929798
H        1.4363232682   -1.2318785683   -0.6601312634
H        2.3708200848    1.0210934845   -1.7557502108
H        0.3398521709    2.8357761695   -1.6460670278
15   
Iteration 25 Energy -288.19387599
C       -0.8109603257   -0.2791106043    1.1173718805
C       -0.6615659257   -1.7020921244    1.5239013856
H       -0.1550952856    0.3713282419    1.7023779762
H       -1.3500473566   -2.4538814270    1.1552086447
H       -1.8384423651    0.0703844010    1.2757100415
H        0.1444780879   -2.0279247185    2.1685456034
N       -0.7702728519    1.3627326548   -0.7421783022
C       -0.5014770512   -0.0360332731   -0.3885370988
C        0.9262066377   -0.2922733180   -0.7850395304
C        1.4119887348    0.8443888934   -1.3126586822
C        0.3156400556    1.8236514932   -1.2555112294
H       -1.1795968052   -0.6647066720   -0.9824136653
H        1.4409331030   -1.2334081569   -0.6501711391
H        2.4053178102    1.0280745374   -1.6994708806
H        0.3812214577    2.8515333956   -1.6026183276
15   
Iteration 24 Energy -288.19387306
C       -0.5472083699   -0.2302726175    1.2695950020
C       -0.0781816928   -1.5339317813    1.8110167349
H        0.0620641069    0.5964683325    1.6440931032
H       -0.6494788877   -2.4386017612    1.6351413252
H       -1.5828908536   -0.0305681352    1.5711473502
H        0.8537270825   -1.6229987643    2.3541761631
N       -1.1284523441    1.0881882963   -0.7560991288
C       -0.5366966142   -0.1690177841   -0.2864366460
C        0.8323945963   -0.2363057538   -0.9045198872
C        0.9948851554    0.8697182294   -1.6511004317
C       -0.2496413668    1.6420490194   -1.5164589396
H       -1.1654093811   -0.9889601052   -0.6614122297
H        1.5366347274   -1.0419126545   -0.7490479335
H        1.8586735537    1.1582535808   -2.2348382390
H       -0.4440232113    2.5971507795   -1.9973795885
15   
Iteration 23 Energy -288.19387273
C       -0.5463181101   -0.2281510022    1.2706326121
C       -0.0752462209   -1.5304431619    1.8134427968
H        0.0634968929    0.5996517920    1.6419496693
H       -0.6521394931   -2.4338959742    1.6501944726
H       -1.5815306558   -0.0287454055    1.5735095528
H        0.8654491551   -1.6206743589    2.3410897721
N       -1.1284347136    1.0882710484   -0.7558075106
C       -0.5375758996   -0.1694362638   -0.2859208730
C        0.8305139759   -0.2384500991   -0.9060359606
C        0.9936295392    0.8671804252   -1.6529753228
C       -0.2498629758    1.6409972871   -1.5170785629
H       -1.1675331181   -0.9889703079   -0.6595698142
H        1.5340940892   -1.0447531317   -0.7512126964
H        1.8571208387    1.1545930010   -2.2377134666
H       -0.4435875374    2.5962991305   -1.9978798107
15   
Iteration 22 Energy -288.19387126
C       -0.5462685319   -0.2256014314    1.2704895441
C       -0.0711294553   -1.5251713108    1.8159890242
H        0.0633384606    0.6043701784    1.6374794870
H       -0.6600240537   -2.4255391095    1.6813853856
H       -1.5809766320   -0.0274920926    1.5743513275
H        0.8902612423   -1.6194931221    2.3043657078
N       -1.1290957877    1.0883388063   -0.7564717958
C       -0.5403067479   -0.1703581258   -0.2868983896
C        0.8275695929   -0.2419620261   -0.9070212188
C        0.9929934080    0.8640423233   -1.6529801847
C       -0.2490334224    1.6401769654   -1.5167745220
H       -1.1723235078   -0.9896312394   -0.6571154673
H        1.5294883311   -1.0498702185   -0.7530917563
H        1.8571927682    1.1502115682   -2.2372705056
H       -0.4406822007    2.5963706608   -1.9966256257
15   
Iteration 21 Energy -288.19386894
C       -0.5475620950   -0.2232030139    1.2710791320
C       -0.0697887649   -1.5208551959    1.8185951990
H        0.0624978675    0.6082932791    1.6341898830
H       -0.6734985917   -2.4157326217    1.7176814344
H       -1.5816776666   -0.0258453933    1.5758588467
H        0.9130398229   -1.6229683930    2.2608161298
N       -1.1292672737    1.0881668656   -0.7577824689
C       -0.5419850391   -0.1708524604   -0.2872212813
C        0.8257203740   -0.2444534775   -0.9074029940
C        0.9928094043    0.8612188197   -1.6534649473
C       -0.2482869512    1.6388762158   -1.5178236940
H       -1.1750635172   -0.9896542058   -0.6564790985
H        1.5266132244   -1.0532857495   -0.7536522489
H        1.8575026778    1.1461179869   -2.2376515009
H       -0.4386219105    2.5952110414   -1.9979198960
15   
Iteration 20 Energy -288.19386692
C       -0.5482646167   -0.2212619904    1.2725662392
C       -0.0683564448   -1.5170969706    1.8223428963
H        0.0614844526    0.6112396165    1.6340990035
H       -0.6813571737   -2.4079627580    1.7450502543
H       -1.5824345682   -0.0253268008    1.5768533235
H        0.9275669738   -1.6247828457    2.2330312729
N       -1.1292173164    1.0882182245   -0.7586722461
C       -0.5425100533   -0.1702883167   -0.2863550860
C        0.8246552488   -0.2458712037   -0.9073348781
C        0.9918071283    0.8581724933   -1.6557902387
C       -0.2486744390    1.6367899817   -1.5207458301
H       -1.1764241886   -0.9892382107   -0.6537593475
H        1.5251335491   -1.0549335093   -0.7529063713
H        1.8561388416    1.1412855711   -2.2413791440
H       -0.4389644440    2.5921405569   -2.0028136304
15   
Iteration 19 Energy -288.19386163
C       -0.5478550013   -0.2181415870    1.2753522813
C       -0.0703932149   -1.5143824094    1.8265723279
H        0.0635232574    0.6139611010    1.6352021681
H       -0.6993395287   -2.3962702121    1.7820096604
H       -1.5815028314   -0.0203501462    1.5785843779
H        0.9408042887   -1.6350732086    2.1944405528
N       -1.1307737562    1.0848329196   -0.7612706457
C       -0.5396693962   -0.1697140955   -0.2842569203
C        0.8277770079   -0.2436762591   -0.9045326963
C        0.9904023550    0.8572832915   -1.6587702635
C       -0.2526094742    1.6323368759   -1.5269580359
H       -1.1707521669   -0.9913957925   -0.6505077312
H        1.5309410207   -1.0498330287   -0.7470510660
H        1.8532560832    1.1402714518   -2.2465964151
H       -0.4466530148    2.5843275259   -2.0141338678
15   
Iteration 18 Energy -288.19384560
C       -0.5513030786   -0.2180390975    1.2785462646
C       -0.0663431489   -1.5107991121    1.8316850709
H        0.0539778587    0.6182792118    1.6396164254
H       -0.7096701963   -2.3831793542    1.8393607721
H       -1.5868268323   -0.0279357868    1.5781001934
H        0.9631225496   -1.6418788060    2.1412056153
N       -1.1332311141    1.0802696494   -0.7649621600
C       -0.5363558956   -0.1690456673   -0.2817619840
C        0.8321809794   -0.2388481698   -0.9002180053
C        0.9886820709    0.8579265214   -1.6619141084
C       -0.2582584236    1.6271754744   -1.5349160734
H       -1.1622844230   -0.9941510572   -0.6493852721
H        1.5396517796   -1.0403992165   -0.7385153381
H        1.8497479287    1.1413817170   -2.2521363700
H       -0.4576576378    2.5746596954   -2.0286634567
15   
Iteration 17 Energy -288.19382559
C       -0.5545915647   -0.2155144115    1.2783316306
C       -0.0604058648   -1.5019165619    1.8383340658
H        0.0446775381    0.6271976756    1.6360616549
H       -0.7159691091   -2.3616896601    1.9125931915
H       -1.5912424145   -0.0309356518    1.5752154752
H        0.9841839129   -1.6426880230    2.0876757374
N       -1.1366380936    1.0734381078   -0.7701954216
C       -0.5351570589   -0.1719984334   -0.2822994640
C        0.8351580082   -0.2372961311   -0.8973291881
C        0.9884019553    0.8582794456   -1.6615514905
C       -0.2621913193    1.6223774211   -1.5393211377
H       -1.1564013581   -1.0012029381   -0.6482505773
H        1.5458637632   -1.0354847387   -0.7333578563
H        1.8493793780    1.1437133726   -2.2509472279
H       -0.4646157936    2.5677522110   -2.0358655844
15   
Iteration 16 Energy -288.19380719
C       -0.5560804635   -0.2111260527    1.2774873780
C       -0.0497364322   -1.4898133823    1.8441747177
H        0.0393732394    0.6381191187    1.6274987692
H       -0.7095695334   -2.3390753362    1.9762955217
H       -1.5923048679   -0.0315086966    1.5773758898
H        1.0046890677   -1.6359361484    2.0447475223
N       -1.1376183387    1.0726734104   -0.7723553740
C       -0.5400445144   -0.1744659859   -0.2835725648
C        0.8298770831   -0.2439706174   -0.8992944642
C        0.9875723750    0.8520149221   -1.6618383987
C       -0.2605703324    1.6201042305   -1.5395319462
H       -1.1641981295   -1.0029062731   -0.6457837503
H        1.5379785502   -1.0447170511   -0.7367617595
H        1.8499525646    1.1351597734   -2.2502874720
H       -0.4592901375    2.5670322764   -2.0346228699
15   
Iteration 15 Energy -288.19379597
C       -0.5518898809   -0.2063222526    1.2767998990
C       -0.0409713273   -1.4810018536    1.8482476647
H        0.0458543914    0.6451796435    1.6180847266
H       -0.7029280939   -2.3229509446    2.0120286897
H       -1.5860577411   -0.0246238649    1.5816974629
H        1.0173089513   -1.6313955602    2.0241332775
N       -1.1390535274    1.0720377100   -0.7715535964
C       -0.5437959507   -0.1770386770   -0.2845204398
C        0.8242487338   -0.2502553585   -0.9039372658
C        0.9846634404    0.8473576215   -1.6634943685
C       -0.2609579467    1.6191159724   -1.5376360552
H       -1.1718212998   -1.0050037218   -0.6403816774
H        1.5300548703   -1.0536630375   -0.7448166073
H        1.8472252545    1.1292600195   -2.2522696333
H       -0.4570521335    2.5682446857   -2.0295521793
15   
Iteration 14 Energy -288.19377719
C       -0.5541986328   -0.2051988725    1.2725703315
C       -0.0296705381   -1.4719605470    1.8489465289
H        0.0380835918    0.6533471167    1.6066286276
H       -0.6853980083   -2.3139288554    2.0356354062
H       -1.5886468471   -0.0301410791    1.5799807182
H        1.0320115675   -1.6157698923    2.0092831035
N       -1.1405972810    1.0719881120   -0.7733182434
C       -0.5512790006   -0.1812298391   -0.2894377568
C        0.8172328016   -0.2578246884   -0.9074516523
C        0.9861086947    0.8449842188   -1.6574241661
C       -0.2566309348    1.6213821777   -1.5308155904
H       -1.1831303460   -1.0067706240   -0.6438878010
H        1.5188962124   -1.0654631067   -0.7518045056
H        1.8524641176    1.1274020041   -2.2403408106
H       -0.4462973333    2.5752783636   -2.0160021255
15   
Iteration 13 Energy -288.19372779
C       -0.5568187616   -0.2034632184    1.2670387987
C       -0.0203680716   -1.4616861023    1.8490993875
H        0.0342730617    0.6591982667    1.5907034617
H       -0.6708774475   -2.3018803263    2.0599397797
H       -1.5884887822   -0.0326451935    1.5855727682
H        1.0442361290   -1.6005505667    1.9941865542
N       -1.1422839620    1.0703427590   -0.7748723390
C       -0.5583786298   -0.1872579766   -0.2986052522
C        0.8112664920   -0.2658329679   -0.9118501991
C        0.9886209862    0.8445038934   -1.6487287445
C       -0.2517438129    1.6245734859   -1.5211098077
H       -1.1940947633   -1.0125970253   -0.6438502988
H        1.5084881318   -1.0780763461   -0.7601642495
H        1.8595405568    1.1300781493   -2.2232387737
H       -0.4346832791    2.5845540437   -1.9966402812
15   
Iteration 12 Energy -288.19361655
C       -0.5531059706   -0.2003038900    1.2549448379
C       -0.0115681024   -1.4506507601    1.8528373168
H        0.0366246557    0.6690425884    1.5649814798
H       -0.6604807378   -2.2865989965    2.0844843347
H       -1.5845107372   -0.0241351444    1.5711103183
H        1.0539113573   -1.5857076204    1.9946092257
N       -1.1468638204    1.0653549818   -0.7808583032
C       -0.5680744590   -0.1967617107   -0.3041319499
C        0.8015878813   -0.2761316206   -0.9213208473
C        0.9926645091    0.8463314862   -1.6351182683
C       -0.2460002971    1.6293310069   -1.5065041731
H       -1.2089860610   -1.0185358734   -0.6474232063
H        1.4950214028   -1.0929711902   -0.7769049771
H        1.8708190393    1.1379833332   -2.1954447591
H       -0.4199782891    2.5982479570   -1.9672416824
15   
Iteration 11 Energy -288.19340794
C       -0.5466384692   -0.1940008491    1.2477463116
C       -0.0065614040   -1.4352785350    1.8559340771
H        0.0542822345    0.6759924344    1.5354055345
H       -0.6581467185   -2.2604617408    2.1166309612
H       -1.5750970568   -0.0092755808    1.5684237301
H        1.0593472607   -1.5730742353    1.9914289482
N       -1.1515281097    1.0577391010   -0.7835570807
C       -0.5774227882   -0.2098646010   -0.3241879744
C        0.7942489236   -0.2879595516   -0.9317799597
C        0.9958663808    0.8493167062   -1.6198660278
C       -0.2410157618    1.6342225507   -1.4874374439
H       -1.2228304077   -1.0336440278   -0.6543640201
H        1.4823892123   -1.1106425739   -0.7966847929
H        1.8806647177    1.1494643047   -2.1649051949
H       -0.4070983414    2.6132869556   -1.9290486541
15   
Iteration 10 Energy -288.19307562
C       -0.5401095611   -0.1892686123    1.2308205557
C       -0.0041321985   -1.4225300148    1.8632829944
H        0.0683182557    0.6795540131    1.5004644660
H       -0.6602663346   -2.2353721566    2.1499670434
H       -1.5569033826    0.0108850294    1.5785060122
H        1.0620100791   -1.5666884129    1.9920702273
N       -1.1563170835    1.0496252212   -0.7886798213
C       -0.5832818796   -0.2217043679   -0.3328148591
C        0.7871969698   -0.2982148014   -0.9463859281
C        0.9997311397    0.8538934299   -1.6056264163
C       -0.2366221836    1.6395581489   -1.4685044462
H       -1.2344492201   -1.0451750781   -0.6437013847
H        1.4727729482   -1.1249935707   -0.8220747903
H        1.8910448070    1.1635222141   -2.1345497722
H       -0.3959822968    2.6281740941   -1.8906857999
15   
Iteration 9 Energy -288.19251769
C       -0.5245489907   -0.1822197753    1.2190448225
C       -0.0035537460   -1.4062721749    1.8735465675
H        0.1020132946    0.6836163684    1.4593947386
H       -0.6706427476   -2.2032322078    2.1789803102
H       -1.5415821587    0.0427168788    1.5494354796
H        1.0600628930   -1.5589061583    2.0110763717
N       -1.1624571885    1.0383986651   -0.7938881132
C       -0.5928192172   -0.2383987222   -0.3522551666
C        0.7777356766   -0.3102324590   -0.9646886025
C        1.0031115502    0.8598135852   -1.5868522367
C       -0.2324549245    1.6450348421   -1.4442772699
H       -1.2488474201   -1.0610987302   -0.6569386642
H        1.4591649830   -1.1422724877   -0.8534146543
H        1.9024812714    1.1820088982   -2.0942495752
H       -0.3831900543    2.6458663942   -1.8401356943
15   
Iteration 8 Energy -288.19188014
C       -0.5135647440   -0.1793916899    1.2076954506
C       -0.0032092060   -1.3953362461    1.8887654122
H        0.1244012952    0.6831685804    1.4284115345
H       -0.6775989537   -2.1814231661    2.2066371408
H       -1.5212079136    0.0632090958    1.5552835640
H        1.0595424767   -1.5598406669    2.0208170522
N       -1.1686302462    1.0313678162   -0.8014428653
C       -0.5988402166   -0.2495850207   -0.3672083394
C        0.7699702183   -0.3197561233   -0.9825258022
C        1.0069971162    0.8661351401   -1.5709755716
C       -0.2290120915    1.6506104916   -1.4266720233
H       -1.2600161767   -1.0737087534   -0.6535596199
H        1.4473585356   -1.1568758891   -0.8862593999
H        1.9130256364    1.1963216831   -2.0608961773
H       -0.3749986582    2.6585112027   -1.8058404212
15   
Iteration 7 Energy -288.19127068
C       -0.5050224006   -0.1785591479    1.2060861342
C       -0.0017096788   -1.3912959935    1.9035268973
H        0.1398623768    0.6797653965    1.4164233294
H       -0.6811284968   -2.1740493000    2.2192953853
H       -1.5108999184    0.0737833932    1.5499057414
H        1.0602091990   -1.5652054239    2.0317257333
N       -1.1735794948    1.0272888857   -0.8120284310
C       -0.6044151866   -0.2555980278   -0.3760190609
C        0.7631745351   -0.3249613148   -0.9969733076
C        1.0103571199    0.8710409521   -1.5604316255
C       -0.2260599591    1.6555487916   -1.4167834249
H       -1.2683393696   -1.0783430121   -0.6548967602
H        1.4373840206   -1.1660189762   -0.9109253035
H        1.9214435377    1.2066484524   -2.0372277418
H       -0.3677091736    2.6678842864   -1.7856311187
15   
Iteration 6 Energy -288.19069272
C       -0.5005784333   -0.1790734463    1.2094621371
C       -0.0005772130   -1.3915677411    1.9143804184
H        0.1416809891    0.6887610973    1.3996329204
H       -0.6814293029   -2.1752642648    2.2254257422
H       -1.5056482143    0.0799240872    1.5534619213
H        1.0610230920   -1.5715746654    2.0358482878
N       -1.1777848884    1.0253836110   -0.8210102064
C       -0.6065628489   -0.2567190091   -0.3820703765
C        0.7597815857   -0.3288928245   -1.0069170132
C        1.0127146993    0.8743351749   -1.5547398664
C       -0.2240562873    1.6593725813   -1.4118059611
H       -1.2772365886   -1.0822587401   -0.6437378272
H        1.4331101544   -1.1711336921   -0.9266288923
H        1.9272477317    1.2125098340   -2.0230609027
H       -0.3631636619    2.6745857512   -1.7739968646
15   
Iteration 5 Energy -288.18983424
C       -0.4977650689   -0.1805727254    1.2154154576
C       -0.0004188786   -1.3938597547    1.9186926083
H        0.1221495422    0.7040422162    1.3630698725
H       -0.6806523849   -2.1787006090    2.2280106099
H       -1.5017261744    0.0925471128    1.5445447137
H        1.0621634350   -1.5738995180    2.0362446448
N       -1.1803682533    1.0245157661   -0.8251773411
C       -0.6068904210   -0.2561035677   -0.3845101864
C        0.7588415726   -0.3309107178   -1.0111789588
C        1.0137652747    0.8758413750   -1.5528214584
C       -0.2228329585    1.6613283515   -1.4102806124
H       -1.2786318636   -1.0757451035   -0.6316081815
H        1.4326553544   -1.1733295834   -0.9324110960
H        1.9298795432    1.2145954949   -2.0175136612
H       -0.3610984192    2.6779223978   -1.7680083913
15   
Iteration 4 Energy -288.18818423
C       -0.4968540442   -0.1748793961    1.2405531635
C        0.0038594800   -1.3902635344    1.9329425450
H        0.1607299984    0.6627022293    1.4466620945
H       -0.6798284119   -2.1806686951    2.2189747420
H       -1.4957475173    0.1035548869    1.5722180004
H        1.0657478830   -1.5807328988    2.0329588900
N       -1.1772052957    1.0157129716   -0.8422229122
C       -0.6189686050   -0.2688949884   -0.4006887935
C        0.7466127179   -0.3272379500   -1.0282699505
C        1.0178285821    0.8835702283   -1.5502685482
C       -0.2166914737    1.6653667791   -1.4065341165
H       -1.2886210363   -1.0743735006   -0.6794037152
H        1.4180961205   -1.1722744056   -0.9474739832
H        1.9419303894    1.2306666980   -1.9934365425
H       -0.3479623588    2.6914662917   -1.7398363894
15   
Iteration 3 Energy -288.18398278
C       -0.4915391541   -0.1730786994    1.2929477144
C        0.0040312676   -1.3888148460    1.9428054176
H        0.1808504130    0.6655081543    1.4552843956
H       -0.6758893019   -2.1875955153    2.2143916988
H       -1.5018744577    0.0958463857    1.5956094268
H        1.0663691087   -1.5840265307    2.0277830750
N       -1.1793213292    1.0103939825   -0.8533084444
C       -0.6275893279   -0.2706317065   -0.4492184805
C        0.7437933371   -0.3299721237   -1.0393813298
C        1.0200630094    0.8891145150   -1.5484568831
C       -0.2120755175    1.6694277259   -1.4043716209
H       -1.3012602923   -1.0949904553   -0.6666193853
H        1.4095044364   -1.1789256464   -0.9617292212
H        1.9495855456    1.2396440586   -1.9763414135
H       -0.3422986586    2.7002667782   -1.7213797854
15   
Iteration 2 Energy -288.17761386
C       -0.4819457326   -0.1733412489    1.3573530385
C        0.0030162965   -1.3896748662    1.9510964266
H        0.1829725683    0.6880664038    1.4162300439
H       -0.6733191466   -2.1952627539    2.2113252885
H       -1.5120812446    0.0844837532    1.5953775039
H        1.0656420558   -1.5886594549    2.0236003023
N       -1.1823063868    1.0056295206   -0.8623702961
C       -0.6352773443   -0.2691053980   -0.5053099189
C        0.7425314662   -0.3336656263   -1.0484270762
C        1.0217998290    0.8941842393   -1.5467271330
C       -0.2076261911    1.6736767597   -1.4024317606
H       -1.3113881542   -1.1141720029   -0.6275891458
H        1.4012233562   -1.1872791093   -0.9758367757
H        1.9558570174    1.2469154131   -1.9613420318
H       -0.3381969725    2.7079590458   -1.7052441042
15   
Iteration 1 Energy -288.17314713
C       -0.4757226396   -0.1745158275    1.4189094142
C        0.0023635983   -1.3826514107    1.9561978105
H        0.1957753104    0.6772598091    1.4468081458
H       -0.6735965212   -2.1940709396    2.1992219965
H       -1.5095078951    0.0880622390    1.6178405228
H        1.0648660200   -1.5885811320    2.0120716544
N       -1.1824523285    0.9971842368   -0.8705195327
C       -0.6444476758   -0.2742956449   -0.5560274310
C        0.7365745190   -0.3344928065   -1.0602583893
C        1.0243397287    0.8997755059   -1.5459754596
C       -0.2021178969    1.6770179630   -1.4011257166
H       -1.3253791583   -1.1116926820   -0.6568484334
H        1.3966155546   -1.1854515451   -0.9707878971
H        1.9632039280    1.2557747019   -1.9463378423
H       -0.3312931705    2.7154921986   -1.6881674050
15   
Iteration 0 Energy -288.17224957
C       -0.4679662263   -0.1744692864    1.4633583211
C        0.0015942570   -1.3811483836    1.9543688595
H        0.2039839079    0.6754062582    1.4220255061
H       -0.6743000597   -2.1924712301    2.1997747618
H       -1.5134415686    0.0782312853    1.5979283584
H        1.0637542274   -1.5886967499    2.0156964261
N       -1.1845392143    0.9924999964   -0.8725791316
C       -0.6501966152   -0.2727176764   -0.5966027056
C        0.7364122715   -0.3354628047   -1.0620191380
C        1.0262260610    0.9028446136   -1.5441159496
C       -0.1985116562    1.6801077908   -1.3997148392
H       -1.3249950081   -1.1190256076   -0.6068183654
H        1.3874995228   -1.1941379950   -0.9866395884
H        1.9650448185    1.2583316973   -1.9442955554
H       -0.3295888504    2.7189084019   -1.6826732383
15   
Iteration 1 Energy -288.17287070
C       -0.4654052634   -0.1746925403    1.5069994421
C        0.0002039355   -1.3755517047    1.9510132281
H        0.2166641580    0.6575788242    1.3991483300
H       -0.6733797157   -2.1888365286    2.1985359387
H       -1.5165266740    0.0709660579    1.5703161969
H        1.0626268838   -1.5821422258    2.0160314202
N       -1.1844739075    0.9854594249   -0.8734897758
C       -0.6577868499   -0.2747584770   -0.6358468569
C        0.7339187314   -0.3352401999   -1.0625429282
C        1.0277967672    0.9056310145   -1.5425604305
C       -0.1943616338    1.6820139307   -1.3983145406
H       -1.3221158620   -1.1201486903   -0.5536830726
H        1.3774634128   -1.2004045113   -1.0027315262
H        1.9665829676    1.2594153853   -1.9435611709
H       -0.3285033044    2.7208028918   -1.6775966288
15   
Iteration 2 Energy -288.17542396
C       -0.4562443903   -0.1719434634    1.5615459806
C        0.0005575168   -1.3781538616    1.9631028501
H        0.2003236765    0.6841221131    1.4327176304
H       -0.6721593469   -2.1975539367    2.1893844585
H       -1.5126421037    0.0751260910    1.6245034755
H        1.0631372778   -1.5886858773    2.0052199362
N       -1.1900418802    0.9789738231   -0.8850160901
C       -0.6656655702   -0.2727972437   -0.6826086538
C        0.7330652031   -0.3393850933   -1.0792244181
C        1.0319311778    0.9085033910   -1.5405894538
C       -0.1908934600    1.6864131252   -1.3962037792
H       -1.3346928076   -1.1224010281   -0.5889758219
H        1.3760450913   -1.2026065963   -0.9967433589
H        1.9749529926    1.2668839849   -1.9267312228
H       -0.3231249645    2.7289543667   -1.6614981740
15   
Iteration 3 Energy -288.17726403
C       -0.4523913804   -0.1699052773    1.6000245844
C        0.0008302598   -1.3784940129    1.9693479717
H        0.1962542973    0.6908511812    1.4525115137
H       -0.6718418395   -2.2004236872    2.1851999841
H       -1.5109851219    0.0776775949    1.6501444845
H        1.0634016593   -1.5907467168    1.9994174430
N       -1.1927071925    0.9743552312   -0.8922550650
C       -0.6716237891   -0.2733443333   -0.7135375491
C        0.7315045859   -0.3409983627   -1.0897626927
C        1.0346547665    0.9107150552   -1.5394738098
C       -0.1880302318    1.6891577105   -1.3947399181
H       -1.3410180826   -1.1232823156   -0.6044656315
H        1.3734481194   -1.2035513515   -0.9957413094
H        1.9804581589    1.2718270167   -1.9158045406
H       -0.3192229570    2.7340555570   -1.6504925276
15   
Iteration 4 Energy -288.17938836
C       -0.4517485312   -0.1691573481    1.6445515375
C        0.0033011485   -1.3757008421    1.9716494779
H        0.2109940077    0.6629826020    1.4584026480
H       -0.6753920968   -2.1936979811    2.1844781259
H       -1.5047866682    0.0773511628    1.6434106117
H        1.0650981016   -1.5929883039    1.9982884942
N       -1.1932012851    0.9703549941   -0.8977630505
C       -0.6794325722   -0.2786502187   -0.7447835862
C        0.7281657027   -0.3395783039   -1.0985785726
C        1.0373582656    0.9136379308   -1.5394711061
C       -0.1840958785    1.6918642934   -1.3944215599
H       -1.3418607210   -1.1167174734   -0.6089073294
H        1.3686756232   -1.2017709620   -0.9927592142
H        1.9856560903    1.2780432359   -1.9060979750
H       -0.3141222878    2.7386522381   -1.6411881503
15   
Iteration 5 Energy -288.18176544
C       -0.4473946496   -0.1628752813    1.6877386008
C        0.0052587867   -1.3809495518    1.9835505291
H        0.2120975980    0.6753541053    1.4898138582
H       -0.6699948483   -2.2047874400    2.1872105450