15   
Iteration 0 Energy -288.17214010
C       -0.4635044050   -0.1652123830    1.4474037333
C        0.0215790111   -1.3625659368    1.9448807848
H        0.2023405132    0.6878629979    1.3805406623
H       -0.6432176682   -2.1754881290    2.2140951506
H       -1.5086285289    0.0832414807    1.5873677136
H        1.0870082389   -1.5545843400    1.9942535904
N       -1.2002006798    0.9776726784   -0.8737045615
C       -0.6734319428   -0.2911551071   -0.6046894155
C        0.7152184932   -0.3584230570   -1.0624984863
C        1.0165151444    0.8866532463   -1.5190152754
C       -0.2042812496    1.6678563474   -1.3805387662
H       -1.3523777504   -1.1338871050   -0.6008126892
H        1.3627585509   -1.2203515354   -0.9910950920
H        1.9655233936    1.2478331829   -1.8853118518
H       -0.3253011257    2.7105476682   -1.6508754914
15   
Iteration 1 Energy -288.17220471
C       -0.4673430740   -0.1686559076    1.4499429398
C        0.0186554470   -1.3668169484    1.9483642760
H        0.1982922284    0.6851804991    1.3915817267
H       -0.6469504193   -2.1798765705    2.2145561776
H       -1.5126291709    0.0780060048    1.5957753799
H        1.0836183500   -1.5624336584    1.9985906874
N       -1.1957405036    0.9834407884   -0.8745548544
C       -0.6673379247   -0.2845815976   -0.6006664622
C        0.7204598222   -0.3515558732   -1.0622964085
C        1.0200024598    0.8904860752   -1.5284979328
C       -0.2022780922    1.6713964771   -1.3874998580
H       -1.3451035746   -1.1285583686   -0.6023250774
H        1.3671177478   -1.2138255361   -0.9895158857
H        1.9669035415    1.2487420868   -1.9059901820
H       -0.3266999420    2.7129776478   -1.6625993377
15   
Iteration 2 Energy -288.17224195
C       -0.4670429029   -0.1713683938    1.4586920072
C        0.0117127188   -1.3734026551    1.9534012202
H        0.2009663967    0.6811101277    1.4083569994
H       -0.6584941782   -2.1856945799    2.2106457399
H       -1.5124543316    0.0777315581    1.6005790541
H        1.0753450209   -1.5755513903    2.0069570095
N       -1.1903808377    0.9885873129   -0.8732027211
C       -0.6588988965   -0.2778810392   -0.5977004771
C        0.7275859617   -0.3435743540   -1.0632730033
C        1.0215401420    0.8956109107   -1.5405178849
C       -0.2015493197    1.6753685648   -1.3962658759
H       -1.3354229254   -1.1228741596   -0.6032876636
H        1.3761593633   -1.2042752442   -0.9894257263
H        1.9634576107    1.2512460299   -1.9332275277
H       -0.3297516033    2.7151809511   -1.6767776007
15   
Iteration 3 Energy -288.17224889
C       -0.4666653615   -0.1729660860    1.4628300832
C        0.0060115040   -1.3780266073    1.9550528672
H        0.2039981762    0.6777437681    1.4180001866
H       -0.6680150006   -2.1895407359    2.2048709637
H       -1.5120450768    0.0786507356    1.6002698687
H        1.0686532460   -1.5840540509    2.0131458492
N       -1.1871721466    0.9907935317   -0.8723620987
C       -0.6532988207   -0.2745410731   -0.5961535501
C        0.7328020184   -0.3383787722   -1.0630055037
C        1.0231503556    0.8997581576   -1.5451958666
C       -0.2009896102    1.6777843358   -1.4000691300
H       -1.3285578760   -1.1205151079   -0.6040712373
H        1.3833152401   -1.1975278846   -0.9880845091
H        1.9622601231    1.2549164390   -1.9449758213
H       -0.3316273812    2.7166259153   -1.6830672732
15   
Iteration 4 Energy -288.17224943
C       -0.4671850192   -0.1738147016    1.4635057056
C        0.0033805915   -1.3799724167    1.9548721432
H        0.2043885639    0.6762938190    1.4208976707
H       -0.6719240817   -2.1913327803    2.2017624171
H       -1.5126035947    0.0785863027    1.5991031893
H        1.0656919957   -1.5870884999    2.0150402064
N       -1.1856434653    0.9918210305   -0.8723318270
C       -0.6512897651   -0.2733421991   -0.5961644294
C        0.7349913702   -0.3364880913   -1.0625189978
C        1.0247010880    0.9016200982   -1.5451847165
C       -0.1998262180    1.6791118178   -1.4002902205
H       -1.3262050670   -1.1195708253   -0.6053407544
H        1.3859776537   -1.1952514856   -0.9872735143
H        1.9633857169    1.2568855551   -1.9458716249
H       -0.3309258916    2.7178326854   -1.6835261099
15   
Iteration 5 Energy -288.17224957
C       -0.4679662263   -0.1744692864    1.4633583211
C        0.0015942570   -1.3811483836    1.9543688595
H        0.2039839079    0.6754062582    1.4220255061
H       -0.6743000597   -2.1924712301    2.1997747618
H       -1.5134415686    0.0782312853    1.5979283584
H        1.0637542274   -1.5886967499    2.0156964261
N       -1.1845392143    0.9924999964   -0.8725791316
C       -0.6501966152   -0.2727176764   -0.5966027056
C        0.7364122715   -0.3354628047   -1.0620191380
C        1.0262260610    0.9028446136   -1.5441159496
C       -0.1985116562    1.6801077908   -1.3997148392
H       -1.3249950081   -1.1190256076   -0.6068183654
H        1.3874995228   -1.1941379950   -0.9866395884
H        1.9650448185    1.2583316973   -1.9442955554
H       -0.3295888504    2.7189084019   -1.6826732383
