15   
Climbing Image - Chain 42 Image 17 Energy  -288.1721401010 (+13.561 kcal/mol) RMSGrad 0.029 eV/Ang
C       -0.4635044050   -0.1652123830    1.4474037333
C        0.0215790111   -1.3625659368    1.9448807848
H        0.2023405132    0.6878629979    1.3805406623
H       -0.6432176682   -2.1754881290    2.2140951506
H       -1.5086285289    0.0832414807    1.5873677136
H        1.0870082389   -1.5545843400    1.9942535904
N       -1.2002006798    0.9776726784   -0.8737045615
C       -0.6734319428   -0.2911551071   -0.6046894155
C        0.7152184932   -0.3584230570   -1.0624984863
C        1.0165151444    0.8866532463   -1.5190152754
C       -0.2042812496    1.6678563474   -1.3805387662
H       -1.3523777504   -1.1338871050   -0.6008126892
H        1.3627585509   -1.2203515354   -0.9910950920
H        1.9655233936    1.2478331829   -1.8853118518
H       -0.3253011257    2.7105476682   -1.6508754914
