13   
Iteration 134 Energy -340.92393772
C       -2.3931275454    0.1149593520   -1.2248484810
N       -1.5727103268    0.2367181962   -0.3875223041
C        0.8732328080    0.2835224231   -0.1083298364
C       -0.5248349526    0.3743098142    0.5559435020
C       -0.6243254025   -0.6658341871    1.6800101205
N       -1.4709971796   -1.5797565462    1.7659537317
C        1.1777938799   -0.6933948472   -1.2014061847
C        1.0793489852    0.5464948203   -1.5687935907
H        1.6492813009    0.5556267416    0.6166943681
H       -0.6174993114    1.3636973256    1.0267499080
H        0.1572253224   -0.5653959469    2.4505437046
H        1.3418439111   -1.7321457801   -1.4450101079
H        1.1018312764    1.3009135041   -2.3405010375
13   
Iteration 133 Energy -340.92393764
C       -2.3931888313    0.1131761410   -1.2248583027
N       -1.5727615187    0.2356709333   -0.3876534091
C        0.8732937064    0.2829257327   -0.1083119562
C       -0.5249025495    0.3740824522    0.5556966681
C       -0.6243737686   -0.6651611655    1.6805948092
N       -1.4711173581   -1.5789553228    1.7671820482
C        1.1774553051   -0.6931182302   -1.2022821832
C        1.0799523120    0.5471811181   -1.5684834369
H        1.6493713364    0.5537011299    0.6171732641
H       -0.6176769164    1.3638342750    1.0257173004
H        0.1571802423   -0.5642101601    2.4510439993
H        1.3407544937   -1.7317375870   -1.4468908549
H        1.1030763123    1.3023255530   -2.3394441537
13   
Iteration 132 Energy -340.92393722
C       -2.3942890350    0.1260049054   -1.2236734902
N       -1.5731532891    0.2430894212   -0.3863912201
C        0.8730780868    0.2868839531   -0.1082107817
C       -0.5246904862    0.3761659550    0.5571002965
C       -0.6235027192   -0.6691481927    1.6763782163
N       -1.4657041941   -1.5878783123    1.7548214726
C        1.1794347926   -0.6952073593   -1.1960705783
C        1.0765030499    0.5422022201   -1.5704389716
H        1.6490639142    0.5652993634    0.6144511288
H       -0.6165105112    1.3636236431    1.0319836506
H        0.1552011817   -0.5688197842    2.4497857386
H        1.3462222038   -1.7348452320   -1.4338870529
H        1.0954097713    1.2923442888   -2.3463646159
13   
Iteration 131 Energy -340.92393420
C       -2.3957044041    0.1395288295   -1.2221948897
N       -1.5736413504    0.2508499768   -0.3850251699
C        0.8729782377    0.2910052261   -0.1080294561
C       -0.5245215764    0.3783843091    0.5585102971
C       -0.6225244964   -0.6731701229    1.6719021733
N       -1.4593334007   -1.5975806267    1.7411950624
C        1.1815715581   -0.6973926504   -1.1895222256
C        1.0729704355    0.5369304023   -1.5724163118
H        1.6488119304    0.5770528271    0.6117563946
H       -0.6152788796    1.3634977251    1.0382836942
H        0.1527633102   -0.5731173597    2.4487983678
H        1.3516774432   -1.7381407161   -1.4202870960
H        1.0872939582    1.2818670492   -2.3534870477
13   
Iteration 130 Energy -340.92392682
C       -2.3975257043    0.1564886536   -1.2201795963
N       -1.5742674907    0.2605739158   -0.3832813791
C        0.8727855483    0.2961566000   -0.1079213478
C       -0.5242266094    0.3810827234    0.5602366448
C       -0.6213821302   -0.6783252009    1.6662108512
N       -1.4520257078   -1.6090424956    1.7244984063
C        1.1844244161   -0.7000044325   -1.1812665770
C        1.0685627574    0.5302135276   -1.5748375072
H        1.6484720656    0.5922027133    0.6079192385
H       -0.6137756529    1.3631010650    1.0463662523
H        0.1499552691   -0.5792245139    2.4470754205
H        1.3589787846   -1.7418637456   -1.4030591575
H        1.0770872197    1.2683560594   -2.3622774560
13   
Iteration 129 Energy -340.92391676
C       -2.3991890830    0.1718065947   -1.2182749165
N       -1.5747904475    0.2693474311   -0.3816779762
C        0.8727123805    0.3009136450   -0.1077717165
C       -0.5240219317    0.3834422699    0.5618235506
C       -0.6203937620   -0.6829556631    1.6609823636
N       -1.4456775740   -1.6190414887    1.7093770042
C        1.1871943834   -0.7023339784   -1.1737358252
C        1.0644860921    0.5241302518   -1.5770180254
H        1.6480473666    0.6058276128    0.6046451729
H       -0.6122816263    1.3627181136    1.0535109463
H        0.1476221181   -0.5850029379    2.4453452412
H        1.3658179920   -1.7453457823   -1.3874333529
H        1.0675368574    1.2562088012   -2.3702886735
13   
Iteration 128 Energy -340.92390197
C       -2.4010914418    0.1888343438   -1.2159378066
N       -1.5754087992    0.2791047350   -0.3798422002
C        0.8725600926    0.3061074134   -0.1077387430
C       -0.5236494913    0.3860582326    0.5635114314
C       -0.6193362192   -0.6881854731    1.6550824076
N       -1.4391438575   -1.6295559301    1.6927496891
C        1.1904351243   -0.7047585483   -1.1653012218
C        1.0600288975    0.5171818616   -1.5793301009
H        1.6476823920    0.6213547255    0.6003461352
H       -0.6107809313    1.3620669221    1.0616919392
H        0.1451152179   -0.5920318530    2.4430027925
H        1.3737488419   -1.7485923863   -1.3698732831
H        1.0569029396    1.2421308262   -2.3788772466
13   
Iteration 127 Energy -340.92388466
C       -2.4028891493    0.2047726860   -1.2136677934
N       -1.5759357563    0.2882817412   -0.3780717189
C        0.8725371275    0.3111945627   -0.1076368363
C       -0.5234146567    0.3884010348    0.5651657846
C       -0.6184157428   -0.6930756796    1.6494315547
N       -1.4333695383   -1.6390567153    1.6771047842
C        1.1936683851   -0.7070280586   -1.1572928702
C        1.0557120181    0.5106820903   -1.5815301554
H        1.6471054035    0.6359003518    0.5966750313
H       -0.6090960538    1.3614408931    1.0691801033
H        0.1430892121   -0.5989418658    2.4405838595
H        1.3815004023   -1.7519405845   -1.3532935346
H        1.0465711142    1.2290844137   -2.3871644161
13   
Iteration 126 Energy -340.92386329
C       -2.4047921179    0.2213759208   -1.2110632595
N       -1.5765257123    0.2978625972   -0.3761683528
C        0.8724042989    0.3163062313   -0.1076904695
C       -0.5229675350    0.3909197848    0.5667908369
C       -0.6174471678   -0.6982406588    1.6434540976
N       -1.4276633111   -1.6485079647    1.6608545407
C        1.1971173064   -0.7092030645   -1.1488967209
C        1.0513453340    0.5036665722   -1.5836639955
H        1.6467168792    0.6513863169    0.5919778557
H       -0.6076466396    1.3605818031    1.0772981037
H        0.1408910145   -0.6065868273    2.4377350918
H        1.3897415388   -1.7546208347   -1.3358380315
H        1.0358888777    1.2147749933   -2.3953059040
13   
Iteration 125 Energy -340.92383947
C       -2.4066540903    0.2373317069   -1.2084946728
N       -1.5770442043    0.3071403303   -0.3742730648
C        0.8724255287    0.3215531800   -0.1076426445
C       -0.5227217059    0.3931957163    0.5684649652
C       -0.6165997820   -0.7031857813    1.6375674225
N       -1.4224325125   -1.6573748160    1.6450619191
C        1.2005936702   -0.7113382126   -1.1407066061
C        1.0469756555    0.4969747262   -1.5857808151
H        1.6459896700    0.6662630437    0.5880513826
H       -0.6058221822    1.3597639825    1.0848654322
H        0.1391392666   -0.6141575570    2.4348158372
H        1.3979589225   -1.7577234324   -1.3189050971
H        1.0252545293    1.2012719830   -2.4035402656
13   
Iteration 124 Energy -340.92381227
C       -2.4085084460    0.2536102944   -1.2056638539
N       -1.5776101270    0.3166113396   -0.3722777147
C        0.8722985398    0.3265833800   -0.1077814708
C       -0.5222028653    0.3956664007    0.5700495065
C       -0.6156840673   -0.7082872808    1.6315005055
N       -1.4172201852   -1.6660846086    1.6289521837
C        1.2041423746   -0.7132945721   -1.1323383889
C        1.0426950628    0.4898627742   -1.5877345823
H        1.6455910839    0.6816784896    0.5829239365
H       -0.6044266286    1.3587304166    1.0929634929
H        0.1370691104   -0.6221693924    2.4316349225
H        1.4063676613   -1.7598818892   -1.3015045414
H        1.0145512522    1.1866895175   -2.4112402029
13   
Iteration 123 Energy -340.92378198
C       -2.4103657964    0.2698788365   -1.2028295717
N       -1.5781197469    0.3261539778   -0.3702108308
C        0.8723551852    0.3320426314   -0.1077933632
C       -0.5219380899    0.3979182091    0.5717901585
C       -0.6148839131   -0.7133433293    1.6253098397
N       -1.4121992248   -1.6746633257    1.6126398163
C        1.2078264310   -0.7153433340   -1.1238693801
C        1.0381835416    0.4828622747   -1.5897806469
H        1.6447065835    0.6970646052    0.5786494031
H       -0.6024158889    1.3577122616    1.1007458995
H        0.1353956500   -0.6302826382    2.4283309809
H        1.4150531032   -1.7627739614   -1.2839971536
H        1.0034649312    1.1724886620   -2.4195013589
13   
Iteration 122 Energy -340.92374814
C       -2.4121389067    0.2866251140   -1.1997388501
N       -1.5786680577    0.3359451831   -0.3680152900
C        0.8722245615    0.3371767832   -0.1080217556
C       -0.5213332910    0.4004429884    0.5734336953
C       -0.6139832226   -0.7185854381    1.6189211674
N       -1.4070090726   -1.6832191061    1.5958607930
C        1.2115625787   -0.7171919693   -1.1151994723
C        1.0337536459    0.4753423962   -1.5916343526
H        1.6442650837    0.7129993051    0.5728640116
H       -0.6009603036    1.3564680343    1.1091668470
H        0.1331821374   -0.6387716977    2.4248806480
H        1.4239365943   -1.7645524237   -1.2659545928
H        0.9922310183    1.1570357002   -2.4270790562
13   
Iteration 121 Energy -340.92371016
C       -2.4139377250    0.3038240101   -1.1966083244
N       -1.5791692167    0.3460727031   -0.3656876704
C        0.8722991802    0.3429466613   -0.1081155247
C       -0.5210160533    0.4027310071    0.5753119490
C       -0.6132144804   -0.7238959468    1.6122615787
N       -1.4018195260   -1.6919276231    1.5784114785
C        1.2155381434   -0.7192192729   -1.1062165004
C        1.0289093460    0.4677663767   -1.5936401631
H        1.6431976765    0.7293564105    0.5679830013
H       -0.5986699957    1.3551871259    1.1174392542
H        0.1313129845   -0.6474857393    2.4212575679
H        1.4333361831   -1.7672392072   -1.2473881745
H        0.9802962490    1.1415983641   -2.4355246794
13   
Iteration 120 Energy -340.92366787
C       -2.4156642541    0.3217374155   -1.1931417878
N       -1.5797087328    0.3565529706   -0.3631870129
C        0.8721398829    0.3483257887   -0.1084579839
C       -0.5203167852    0.4053707451    0.5770926037
C       -0.6123239843   -0.7294507812    1.6053287843
N       -1.3963083537   -1.7007398679    1.5603004096
C        1.2195980983   -0.7210390484   -1.0969623445
C        1.0241289955    0.4595460298   -1.5954452033
H        1.6426120484    0.7463284173    0.5613034458
H       -0.5970132682    1.3536662378    1.1264597122
H        0.1287264490   -0.6565936777    2.4175420128
H        1.4430807899   -1.7687104940   -1.2281305744
H        0.9681118800    1.1247211342   -2.4432182688
13   
Iteration 119 Energy -340.92362242
C       -2.4174307734    0.3395711670   -1.1897129191
N       -1.5802156121    0.3670477931   -0.3606339449
C        0.8722075096    0.3542266124   -0.1086528053
C       -0.5199589491    0.4076176890    0.5790499229
C       -0.6116183687   -0.7348783199    1.5983403219
N       -1.3909472537   -1.7094269499    1.5420596531
C        1.2238200455   -0.7229903907   -1.0876795630
C        1.0190755281    0.4515234565   -1.5973285341
H        1.6413169789    0.7632639639    0.5558650313
H       -0.5944601247    1.3521160153    1.1350100749
H        0.1266019397   -0.6656062425    2.4137208076
H        1.4530314480   -1.7710658446   -1.2089789650
H        0.9556403977    1.1083159200   -2.4515752875
13   
Iteration 118 Energy -340.92357226
C       -2.4192533402    0.3582645823   -1.1857839302
N       -1.5807725456    0.3779599671   -0.3578864714
C        0.8719751771    0.3596769739   -0.1091290442
C       -0.5191980890    0.4102977825    0.5808775720
C       -0.6107728221   -0.7406107921    1.5909785915
N       -1.3853391763   -1.7181806863    1.5231598667
C        1.2281835995   -0.7247066467   -1.0780644777
C        1.0141365272    0.4427684018   -1.5990055086
H        1.6405024961    0.7808281910    0.5483791566
H       -0.5926650277    1.3503170164    1.1443739211
H        0.1237706732   -0.6751653013    2.4096885197
H        1.4635568653   -1.7720961853   -1.1889875129
H        0.9429384281    1.0903615663   -2.4591168900
13   
Iteration 117 Energy -340.92352344
C       -2.4210697243    0.3753982581   -1.1821903333
N       -1.5812993883    0.3880241095   -0.3553262678
C        0.8720569766    0.3653474947   -0.1093950290
C       -0.5188793077    0.4122718681    0.5827224306
C       -0.6102018293   -0.7457530652    1.5841380287
N       -1.3804351602   -1.7260560806    1.5056419544
C        1.2324613012   -0.7264224386   -1.0691478527
C        1.0093357757    0.4349281358   -1.6006182192
H        1.6389616148    0.7971141443    0.5429634825
H       -0.5900018280    1.3485808400    1.1524684364
H        0.1218019627   -0.6839389325    2.4057089680
H        1.4733914794   -1.7739971386   -1.1706575137
H        0.9309408929    1.0742176745   -2.4668242923
13   
Iteration 116 Energy -340.92346945
C       -2.4230066681    0.3938382447   -1.1779067238
N       -1.5818761731    0.3987416110   -0.3524904733
C        0.8717447591    0.3705353823   -0.1099807520
C       -0.5180895496    0.4148664601    0.5844351023
C       -0.6094630890   -0.7513749210    1.5767050008
N       -1.3754747982   -1.7339960069    1.4872583700
C        1.2370171251   -0.7278795585   -1.0596789495
C        1.0045878767    0.4260922955   -1.6020516672
H        1.6379990192    0.8143048435    0.5349507156
H       -0.5883015582    1.3465754717    1.1616556319
H        0.1191314054   -0.6937227749    2.4012686995
H        1.4843697953   -1.7743658437   -1.1509660154
H        0.9184246210    1.0560996659   -2.4737151463
13   
Iteration 115 Energy -340.92342017
C       -2.4248505380    0.4099311739   -1.1742481475
N       -1.5823987178    0.4082087868   -0.3500023650
C        0.8719104631    0.3760225088   -0.1102995115
C       -0.5178132748    0.4164464176    0.5861320191
C       -0.6090884580   -0.7562061185    1.5701249854
N       -1.3716099545   -1.7407374955    1.4710351160
C        1.2414085185   -0.7293064992   -1.0512476840
C        1.0001354989    0.4186253214   -1.6034033153
H        1.6362043704    0.8298878856    0.5297823597
H       -0.5855070588    1.3446067995    1.1691684215
H        0.1176479182   -0.7024012596    2.3969387583
H        1.4940034357   -1.7758399623   -1.1336997162
H        0.9070205625    1.0404773111   -2.4807971278
13   
Iteration 114 Energy -340.92336033
C       -2.4269265614    0.4293202940   -1.1693802681
N       -1.5830087889    0.4194252380   -0.3468625147
C        0.8715346907    0.3813179565   -0.1110105823
C       -0.5169604649    0.4190916632    0.5878675356
C       -0.6084765649   -0.7620870873    1.5621446269
N       -1.3673799797   -1.7481917418    1.4521115168
C        1.2465660625   -0.7305790821   -1.0413005522
C        0.9951769434    0.4091127252   -1.6047112828
H        1.6350203040    0.8478448224    0.5207434440
H       -0.5837263027    1.3422533138    1.1787561984
H        0.1151311487   -0.7132637741    2.3916471377
H        1.5064513813   -1.7755456657   -1.1130005523
H        0.8936608974    1.0210162075   -2.4875209143
13   
Iteration 113 Energy -340.92330347
C       -2.4288475851    0.4470211427   -1.1651497727
N       -1.5835886470    0.4297860431   -0.3439672137
C        0.8718146587    0.3873827534   -0.1114780460
C       -0.5165329096    0.4205804296    0.5896702712
C       -0.6082684921   -0.7674311313    1.5548013645
N       -1.3643046722   -1.7546826835    1.4346888752
C        1.2519188898   -0.7318131827   -1.0319964570
C        0.9903322987    0.4006998394   -1.6059900976
H        1.6329089733    0.8653060256    0.5144732036
H       -0.5805133348    1.3396526018    1.1870376557
H        0.1137526812   -0.7234915586    2.3862770690
H        1.5176636884   -1.7764478355   -1.0940158620
H        0.8807272162    1.0031524256   -2.4948671974
13   
Iteration 112 Energy -340.92323379
C       -2.4312492917    0.4684906451   -1.1592522956
N       -1.5842222170    0.4423234634   -0.3402886726
C        0.8712655402    0.3932247180   -0.1124459678
C       -0.5156140960    0.4232870445    0.5916092079
C       -0.6079413158   -0.7740014424    1.5457203384
N       -1.3615533902   -1.7616482930    1.4145954091
C        1.2581979093   -0.7329494322   -1.0209486084
C        0.9847636350    0.3898582768   -1.6072816812
H        1.6309833196    0.8854928453    0.5038227319
H       -0.5782354575    1.3366100230    1.1977312595
H        0.1117419905   -0.7366188275    2.3792333874
H        1.5330603043   -1.7753678830   -1.0710250786
H        0.8658658350    0.9810137316   -2.5019862373
13   
Iteration 111 Energy -340.92316603
C       -2.4333257180    0.4883025291   -1.1541286062
N       -1.5848145692    0.4538194403   -0.3368664643
C        0.8717326805    0.4000108855   -0.1131528548
C       -0.5149082379    0.4247582161    0.5934829276
C       -0.6078392672   -0.7800068446    1.5373195100
N       -1.3589083348   -1.7681807299    1.3952343607
C        1.2646059446   -0.7339068088   -1.0105090087
C        0.9795284273    0.3801836713   -1.6084458587
H        1.6285812626    0.9052090657    0.4959675563
H       -0.5745703205    1.3332269782    1.2069813893
H        0.1100069638   -0.7484629876    2.3729101544
H        1.5459444728   -1.7754811008   -1.0498037674
H        0.8510294616    0.9602425551   -2.5095055453
13   
Iteration 110 Energy -340.92309886
C       -2.4352756869    0.5077616181   -1.1487052779
N       -1.5858549618    0.4652516272   -0.3329387664
C        0.8709836081    0.4046435872   -0.1140555348
C       -0.5143071603    0.4271988007    0.5953118897
C       -0.6078573979   -0.7855356137    1.5293027877
N       -1.3571070699   -1.7735166536    1.3771224742
C        1.2708756527   -0.7347934092   -1.0008521041
C        0.9742932756    0.3698901866   -1.6093619169
H        1.6265565206    0.9225460403    0.4856718828
H       -0.5723949856    1.3304582266    1.2164606912
H        0.1081944953   -0.7604509841    2.3663078574
H        1.5617077855   -1.7735926269   -1.0297489801
H        0.8372486903    0.9398540704   -2.5150312104
13   
Iteration 109 Energy -340.92302333
C       -2.4384991855    0.5291209356   -1.1418668549
N       -1.5861624176    0.4775273764   -0.3295112706
C        0.8712049712    0.4124503395   -0.1152419872
C       -0.5133164394    0.4284954578    0.5970245513
C       -0.6077649504   -0.7925580019    1.5193999796
N       -1.3571731214   -1.7790855041    1.3581523143
C        1.2779351867   -0.7353066641   -0.9891364539
C        0.9693328351    0.3593706933   -1.6103847347
H        1.6228987736    0.9451620720    0.4762695585
H       -0.5685344702    1.3259115170    1.2267480621
H        0.1082502376   -0.7750979542    2.3569433905
H        1.5761351339   -1.7727337905   -1.0058766559
H        0.8227562120    0.9164583926   -2.5230361063
13   
Iteration 108 Energy -340.92292324
C       -2.4415782038    0.5570666387   -1.1333731911
N       -1.5875433850    0.4938396569   -0.3237056146
C        0.8705222357    0.4200963626   -0.1167968026
C       -0.5123866225    0.4312407981    0.5995776680
C       -0.6079966411   -0.8006659986    1.5073555551
N       -1.3559810407   -1.7858941275    1.3322735184
C        1.2875181041   -0.7360405931   -0.9748860853
C        0.9621982591    0.3445579743   -1.6113607055
H        1.6188730233    0.9711358567    0.4617463997
H       -0.5644001845    1.3210342425    1.2400989320
H        0.1064329768   -0.7930233931    2.3462287513
H        1.5983987435   -1.7696317993   -0.9766573755
H        0.8030055006    0.8859992516   -2.5310172572
13   
Iteration 107 Energy -340.92282336
C       -2.4452005113    0.5848608386   -1.1240821620
N       -1.5886555762    0.5100288573   -0.3180433486
C        0.8700045890    0.4284800081   -0.1185754676
C       -0.5112809282    0.4333560021    0.6019016979
C       -0.6083499918   -0.8091141815    1.4947783766
N       -1.3569944439   -1.7916542595    1.3076643719
C        1.2973890411   -0.7363452220   -0.9603683276
C        0.9555450457    0.3298453017   -1.6121589369
H        1.6138507535    0.9983582260    0.4471726285
H       -0.5596939705    1.3152451309    1.2534037662
H        0.1058337290   -0.8120470696    2.3339114900
H        1.6206218386   -1.7660879897   -0.9469589807
H        0.7839931905    0.8547892271   -2.5391613149
13   
Iteration 106 Energy -340.92272256
C       -2.4487394861    0.6128031089   -1.1143833241
N       -1.5899005840    0.5262810671   -0.3119672949
C        0.8693472549    0.4365829212   -0.1205030682
C       -0.5101835066    0.4354631430    0.6042643906
C       -0.6089607753   -0.8174437574    1.4820681796
N       -1.3588447737   -1.7967071203    1.2830448690
C        1.3078006389   -0.7363273863   -0.9458453956
C        0.9488711203    0.3146944773   -1.6126841695
H        1.6084715648    1.0253035574    0.4317685889
H       -0.5548464037    1.3092742546    1.2666799300
H        0.1052779860   -0.8314628275    2.3210159095
H        1.6439727635   -1.7615796334   -0.9173873450
H        0.7647969665    0.8228330651   -2.5465874776
13   
Iteration 105 Energy -340.92262076
C       -2.4524467147    0.6405757306   -1.1040815157
N       -1.5911688153    0.5426549120   -0.3055898199
C        0.8685437248    0.4446189139   -0.1226400063
C       -0.5090177461    0.4373581337    0.6065513193
C       -0.6098203204   -0.8257750287    1.4691648852
N       -1.3620524131   -1.8009326109    1.2590855109
C        1.3185404207   -0.7359809778   -0.9314136752
C        0.9424446023    0.2993061234   -1.6130053039
H        1.6023881796    1.0523350114    0.4157061904
H       -0.5496493754    1.3028281664    1.2799711942
H        0.1049633754   -0.8513507564    2.3073604383
H        1.6682136222   -1.7561729309   -0.8880502466
H        0.7461242255    0.7902501829   -2.5535751781
13   
Iteration 104 Energy -340.92251750
C       -2.4561968416    0.6683063696   -1.0933452814
N       -1.5925829032    0.5589987642   -0.2988738798
C        0.8676308454    0.4524090458   -0.1248961242
C       -0.5078923074    0.4392265580    0.6087848444
C       -0.6107949592   -0.8339110167    1.4561779197
N       -1.3654302429   -1.8047596475    1.2350329012
C        1.3294672901   -0.7353369198   -0.9170963078
C        0.9362012283    0.2836642222   -1.6130545873
H        1.5959856792    1.0787530311    0.3991160967
H       -0.5443711199    1.2962358900    1.2930563386
H        0.1045039472   -0.8711256007    2.2934423499
H        1.6928264085   -1.7499359076   -0.8590142410
H        0.7277157413    0.7571900812   -2.5598462364
13   
Iteration 103 Energy -340.92241453
C       -2.4600466050    0.6960318903   -1.0819873394
N       -1.5939576064    0.5755363627   -0.2918165926
C        0.8664362126    0.4600963342   -0.1274507340
C       -0.5067009072    0.4408949445    0.6110379501
C       -0.6120503933   -0.8420853839    1.4429716277
N       -1.3699090028   -1.8080238230    1.2115313021
C        1.3405777595   -0.7344515012   -0.9028363355
C        0.9301667083    0.2677996071   -1.6129102359
H        1.5886081839    1.1053129574    0.3818367689
H       -0.5385859147    1.2891844058    1.3062350153
H        0.1041682568   -0.8912141771    2.2788459446
H        1.7183208416   -1.7428544516   -0.8301544111
H        0.7100352324    0.7234877044   -2.5658191676
13   
Iteration 102 Energy -340.92231399
C       -2.4639066857    0.7237796607   -1.0702396189
N       -1.5954467299    0.5920261445   -0.2844777085
C        0.8651378550    0.4675485282   -0.1301422524
C       -0.5055527269    0.4423745745    0.6131715504
C       -0.6135533660   -0.8501583456    1.4297257362
N       -1.3754045281   -1.8105926132    1.1886956962
C        1.3521202784   -0.7331514707   -0.8887276847
C        0.9243478410    0.2516958663   -1.6125387232
H        1.5807898728    1.1313459938    0.3640221017
H       -0.5326980441    1.2817916775    1.3191732756
H        0.1040073694   -0.9115199401    2.2636072103
H        1.7445760603   -1.7347309219   -0.8016654892
H        0.6926455694    0.6893057157   -2.5711203009
13   
Iteration 101 Energy -340.92221595
C       -2.4677901004    0.7516848642   -1.0579998226
N       -1.5969471516    0.6085664207   -0.2768569896
C        0.8635458341    0.4748298134   -0.1330812251
C       -0.5044042127    0.4436170159    0.6152646564
C       -0.6152937271   -0.8582401379    1.4163388081
N       -1.3819701129   -1.8126080051    1.1666685673
C        1.3639352576   -0.7315115384   -0.8747037278
C        0.9187604967    0.2353757415   -1.6119659677
H        1.5720337030    1.1572618244    0.3456317163
H       -0.5264811883    1.2739468364    1.3320601196
H        0.1041116405   -0.9320843234    2.2476275674
H        1.7715379994   -1.7256916181   -0.7734536236
H        0.6760243273    0.6545679760   -2.5760462858
13   
Iteration 100 Energy -340.92211952
C       -2.4718212689    0.7797568479   -1.0452815765
N       -1.5986675815    0.6249341876   -0.2689582473
C        0.8617383974    0.4818855712   -0.1361978923
C       -0.5033762029    0.4446375297    0.6171884241
C       -0.6171992196   -0.8662424610    1.4028939415
N       -1.3895883451   -1.8139430533    1.1456077484
C        1.3760695037   -0.7294716705   -0.8608266323
C        0.9136225481    0.2188939364   -1.6111743618
H        1.5626233754    1.1826358223    0.3268096441
H       -0.5202423707    1.2657330775    1.3446440872
H        0.1046946747   -0.9528573350    2.2307734506
H        1.7990116499   -1.7156660839   -0.7455940233
H        0.6601976050    0.6194185005   -2.5804007697
13   
Iteration 99 Energy -340.92202395
C       -2.4759777839    0.8080440070   -1.0319579821
N       -1.6004894769    0.6412000950   -0.2607549824
C        0.8596037956    0.4887008627   -0.1395808532
C       -0.5024018731    0.4453849406    0.6190137367
C       -0.6193596735   -0.8742341881    1.3893611890
N       -1.3984996198   -1.8146012422    1.1256562620
C        1.3884518645   -0.7270932609   -0.8470661272
C        0.9088650261    0.2022408068   -1.6102226969
H        1.5522337966    1.2077190731    0.3074492369
H       -0.5137479418    1.2570861318    1.3570401915
H        0.1056811292   -0.9739447848    2.2130235870
H        1.8272745965   -1.7046223921   -0.7180659997
H        0.6454289261    0.5838348207   -2.5844117689
13   
Iteration 98 Energy -340.92193092
C       -2.4802412784    0.8363442810   -1.0180902299
N       -1.6024209918    0.6572263853   -0.2522985698
C        0.8572742089    0.4952293654   -0.1431499678
C       -0.5014959823    0.4458812699    0.6206897381
C       -0.6218001832   -0.8821311960    1.3758339242
N       -1.4087368552   -1.8144559634    1.1068777751
C        1.4011875175   -0.7242917081   -0.8335101247
C        0.9044972583    0.1854302883   -1.6090985812
H        1.5411658091    1.2321993797    0.2876671135
H       -0.5071359513    1.2480924179    1.3690950791
H        0.1069980024   -0.9953029941    2.1944196041
H        1.8562270533   -1.6924827816   -0.6910383121
H        0.6315441583    0.5479761254   -2.5879136561
13   
Iteration 97 Energy -340.92184255
C       -2.4845525249    0.8645306884   -1.0036464040
N       -1.6043112910    0.6731357058   -0.2436074724
C        0.8547071752    0.5015293664   -0.1469309448
C       -0.5005782755    0.4461543316    0.6222713707
C       -0.6245411438   -0.8899750612    1.3622387663
N       -1.4203293150   -1.8135467426    1.0892672838
C        1.4141408307   -0.7210865097   -0.8200982509
C        0.9004882323    0.1684832895   -1.6078114541
H        1.5292790307    1.2562561052    0.2674393732
H       -0.5002799457    1.2387350890    1.3809312272
H        0.1086129626   -1.0170211290    2.1748880945
H        1.8857837977   -1.6792603379   -0.6644146564
H        0.6186432321    0.5117800739   -2.5910431404
13   
Iteration 96 Energy -340.92176082
C       -2.4887879539    0.8924646360   -0.9888220340
N       -1.6061467451    0.6888789123   -0.2347425483
C        0.8520027668    0.5076145973   -0.1508428964
C       -0.4996672049    0.4462348152    0.6237343938
C       -0.6275488068   -0.8977301288    1.3486129818
N       -1.4331700965   -1.8118537043    1.0728518586
C        1.4273268727   -0.7174372372   -0.8068668217
C        0.8968537146    0.1514491789   -1.6063034170
H        1.5167856651    1.2797483707    0.2468557063
H       -0.4933055431    1.2290487255    1.3924939704
H        0.1105350906   -1.0390489929    2.1544112606
H        1.9156903314   -1.6649907944   -0.6382691736
H        0.6064946746    0.4753364912   -2.5936294878
13   
Iteration 95 Energy -340.92168670
C       -2.4928829395    0.9202240693   -0.9736429068
N       -1.6078797509    0.7045565908   -0.2257003437
C        0.8490748963    0.5134738265   -0.1549049920
C       -0.4987593341    0.4461453120    0.6251216843
C       -0.6307988064   -0.9054165697    1.3349249179
N       -1.4471023394   -1.8094816354    1.0575969761
C        1.4406337331   -0.7133909374   -0.7937649787
C        0.8935420812    0.1343142613   -1.6045741329
H        1.5035210885    1.3027396455    0.2259177234
H       -0.4861575223    1.2190396088    1.4038545437
H        0.1127638347   -1.0613845772    2.1329568253
H        1.9459024368   -1.6497054549   -0.6125445885
H        0.5952053875    0.4386007299   -2.5957569353
13   
Iteration 94 Energy -340.92162084
C       -2.4968287244    0.9478314355   -0.9581994921
N       -1.6096149391    0.7200927601   -0.2164696344
C        0.8459377889    0.5190690671   -0.1590879088
C       -0.4979317373    0.4459071011    0.6264130054