13   
IRC reactant Energy -340.92393772
C       -2.3931275454    0.1149593520   -1.2248484810
N       -1.5727103268    0.2367181962   -0.3875223041
C        0.8732328080    0.2835224231   -0.1083298364
C       -0.5248349526    0.3743098142    0.5559435020
C       -0.6243254025   -0.6658341871    1.6800101205
N       -1.4709971796   -1.5797565462    1.7659537317
C        1.1777938799   -0.6933948472   -1.2014061847
C        1.0793489852    0.5464948203   -1.5687935907
H        1.6492813009    0.5556267416    0.6166943681
H       -0.6174993114    1.3636973256    1.0267499080
H        0.1572253224   -0.5653959469    2.4505437046
H        1.3418439111   -1.7321457801   -1.4450101079
H        1.1018312764    1.3009135041   -2.3405010375
13   
IRC product Energy -340.92257153
C       -2.5462941373    1.6580219518   -0.3478110073
N       -1.6280463594    1.0821137153    0.1150244657
C        0.7082686102    0.5753306514   -0.3314283205
C       -0.4845766551    0.4099958869    0.6346256938
C       -0.7812614975   -1.0578129569    0.9520930264
N       -1.8616939330   -1.6512629767    0.7532264872
C        1.7767229604   -0.4686974620   -0.4987682658
C        0.9395317871   -0.3586532182   -1.4832423835
H        0.9608583163    1.6354930445   -0.4389947495
H       -0.2270403448    0.8902162521    1.5902303906
H        0.0648853883   -1.5992020172    1.4040652848
H        2.6547067284   -0.9236301272   -0.0643846595
H        0.6010019020   -0.6521978741   -2.4651521698
