13   
Iteration 0 Energy -340.92126154
C       -2.4919359587    1.2010900080   -0.8941638397
N       -1.6122374952    0.8836196715   -0.1762595924
C        0.8258754949    0.5377303019   -0.1866569400
C       -0.4992182881    0.5051103454    0.6252429582
C       -0.7160950285   -0.8567848725    1.2947161586
N       -1.6985628611   -1.6105371572    1.1375843045
C        1.4883313994   -0.7200595313   -0.6832026187
C        0.8890361761   -0.0092728805   -1.5830205858
H        1.4334262159    1.4078687882    0.0812712991
H       -0.4109890107    1.2387444219    1.4376799157
H        0.1078674076   -1.1574438686    1.9626041127
H        2.0750402032   -1.5823117736   -0.4040918399
H        0.6094687336    0.1624968992   -2.6117754645
13   
Iteration 1 Energy -340.92132590
C       -2.4852420543    1.2024632460   -0.8995853846
N       -1.6059046625    0.8885524694   -0.1802189492
C        0.8286033609    0.5424658538   -0.1849570014
C       -0.4968082516    0.5078781807    0.6256420959
C       -0.7154963360   -0.8581829108    1.2849353218
N       -1.6958814363   -1.6137884061    1.1194823885
C        1.4893029948   -0.7182627419   -0.6771974173
C        0.8816497225   -0.0125354808   -1.5765528103
H        1.4372045747    1.4141507653    0.0735106650
H       -0.4144130024    1.2362069238    1.4435589209
H        0.1042446294   -1.1606170553    1.9562597144
H        2.0778338799   -1.5789144304   -0.3975654026
H        0.5890549723    0.1586909763   -2.6010135208
13   
Iteration 2 Energy -340.92137786
C       -2.4795371195    1.2021635789   -0.9078963082
N       -1.6007718549    0.8942864792   -0.1852627956
C        0.8309140546    0.5449208229   -0.1816227750
C       -0.4962737220    0.5119035770    0.6264919173
C       -0.7188324357   -0.8577312703    1.2768846120
N       -1.6852415178   -1.6243992350    1.0822344154
C        1.4897652663   -0.7166462629   -0.6751129332
C        0.8768425258   -0.0133083399   -1.5724125103
H        1.4401364530    1.4175924024    0.0711109920
H       -0.4185800717    1.2369346782    1.4475574458
H        0.0844620072   -1.1523605949    1.9711181201
H        2.0753380907   -1.5796060693   -0.3964328970
H        0.5662185932    0.1558860844   -2.5917424948
13   
Iteration 3 Energy -340.92140609
C       -2.4951236577    1.1692428210   -0.9084121177
N       -1.6163235421    0.8627337237   -0.1852215897
C        0.8181747203    0.5349975336   -0.1762221200
C       -0.5116857739    0.4823575867    0.6273584689
C       -0.7218844776   -0.8966872301    1.2611110242
N       -1.6523702289   -1.6931831743    1.0171668229
C        1.4962413504   -0.7159189374   -0.6708445866
C        0.8760144510   -0.0191649035   -1.5681671405
H        1.4138045877    1.4161525654    0.0794113323
H       -0.4432448753    1.1997114878    1.4557203909
H        0.0593241894   -1.1718294550    1.9878843373
H        2.0891298545   -1.5735564019   -0.3912975170
H        0.5568330596    0.1432922719   -2.5859546511
13   
Iteration 4 Energy -340.92139473
C       -2.5806574888    0.8282951826   -0.8322341412
N       -1.6702567680    0.5976252669   -0.1200433754
C        0.7845720187    0.5436643967   -0.1283152189
C       -0.5259765070    0.3151578361    0.6774579605
C       -0.5744839295   -1.1010877428    1.2594654863
N       -1.3638671638   -2.0120644022    0.9328214323
C        1.6036124915   -0.6055009141   -0.6553632749
C        0.8988842279    0.0332722805   -1.5331977065
H        1.2717686348    1.4837656025    0.1462498371
H       -0.5323699690    1.0064654837    1.5300377061
H        0.1982017388   -1.2927558229    2.0213719352
H        2.2934367315   -1.3949443631   -0.3983430219
H        0.5495584909    0.1754823930   -2.5441018090
13   
Iteration 5 Energy -340.92140840
C       -2.5189082211    1.0862026700   -0.8857812100
N       -1.6302366051    0.7955119561   -0.1681373947
C        0.8126570331    0.5430480598   -0.1677110867
C       -0.5130948722    0.4373135892    0.6374955694
C       -0.6786735474   -0.9572562244    1.2500265145
N       -1.5684729484   -1.7891408414    0.9745709817
C        1.5383286008   -0.6791615761   -0.6665738190
C        0.8899730535   -0.0047753559   -1.5611137605
H        1.3735275760    1.4463542797    0.0892552242
H       -0.4650075478    1.1441354350    1.4761513457
H        0.0984165625   -1.2099803933    1.9892486810
H        2.1637278907   -1.5143826581   -0.3900319717
H        0.5608317482    0.1458812850   -2.5775504761
13   
Iteration 6 Energy -340.92140865
C       -2.5126013802    1.1110214970   -0.8729495719
N       -1.6192082198    0.8115854555   -0.1648211595
C        0.8228524586    0.5492625997   -0.1847430106
C       -0.4970907016    0.4445474218    0.6298731577
C       -0.6634070974   -0.9525146355    1.2365387337
N       -1.5607568149   -1.7780337327    0.9665511784
C        1.5407884072   -0.6732611254   -0.6938886034
C        0.8885076631    0.0071514604   -1.5809842653
H        1.3887755073    1.4494193390    0.0722153196
H       -0.4396764488    1.1467524261    1.4718314033
H        0.1202194722   -1.2130901761    1.9660638275
H        2.1654087730   -1.5116354023   -0.4252319259
H        0.5534869042    0.1635424057   -2.5946254322
13   
Iteration 7 Energy -340.92140866
C       -2.5165571524    1.1167383796   -0.8553441848
N       -1.6195764673    0.8136637430   -0.1533245927
C        0.8218189130    0.5476271443   -0.1879952706
C       -0.4935922622    0.4421034686    0.6337839953
C       -0.6587071883   -0.9567913279    1.2365059932
N       -1.5581721121   -1.7803843412    0.9676893744
C        1.5357684445   -0.6741752882   -0.7044267365
C        0.8789902515    0.0090989548   -1.5859905270
H        1.3899778967    1.4466387723    0.0680438474
H       -0.4303053605    1.1412957581    1.4778234513
H        0.1279339535   -1.2207480707    1.9615602035
H        2.1612149161   -1.5137698251   -0.4415680921
H        0.5382689331    0.1684175020   -2.5972736687
