13   
IRC reactant Energy -340.97576517
C       -2.2040435865    2.0130979028    0.8307851316
N       -2.4245985400    3.1486855653    0.6230032374
C        1.3533194231   -0.2052469768   -0.2043911334
C        0.1512057953    0.5677378426    0.1389492792
C       -0.9685219317    0.0600652490    0.7934635441
N       -2.0769857946    0.7299735798    1.1218694325
C        1.8068119580   -1.3955910701    0.6412792651
C        1.2836921386   -1.7049318529   -0.4939479689
H        2.1192449017    0.3800362798   -0.7168326379
H        0.1385434121    1.6197329302   -0.1419242830
H       -0.9813759872   -0.9883974586    1.0851252349
H        2.2378892480   -1.6555987920    1.5964814088
H        0.9389979806   -2.4236792754   -1.2222546228
