13   
Iteration 0 Energy -340.97576517
C       -2.2040435865    2.0130979028    0.8307851316
N       -2.4245985400    3.1486855653    0.6230032374
C        1.3533194231   -0.2052469768   -0.2043911334
C        0.1512057953    0.5677378426    0.1389492792
C       -0.9685219317    0.0600652490    0.7934635441
N       -2.0769857946    0.7299735798    1.1218694325
C        1.8068119580   -1.3955910701    0.6412792651
C        1.2836921386   -1.7049318529   -0.4939479689
H        2.1192449017    0.3800362798   -0.7168326379
H        0.1385434121    1.6197329302   -0.1419242830
H       -0.9813759872   -0.9883974586    1.0851252349
H        2.2378892480   -1.6555987920    1.5964814088
H        0.9389979806   -2.4236792754   -1.2222546228
13   
Iteration 1 Energy -340.97576517
C       -2.2047186221    2.0118997027    0.8313568943
N       -2.4256734243    3.1474363419    0.6237192287
C        1.3532583886   -0.2051751116   -0.2043535557
C        0.1509643350    0.5674228687    0.1392225398
C       -0.9685481360    0.0592771101    0.7937363690
N       -2.0772102315    0.7287856358    1.1222914210
C        1.8071760368   -1.3955283885    0.6410766540
C        1.2839999533   -1.7048335004   -0.4941346263
H        2.1189666037    0.3803968901   -0.7167900255
H        0.1379584708    1.6194548507   -0.1414948940
H       -0.9810440474   -0.9892338593    1.0852440030
H        2.2384388791   -1.6555695174    1.5961860008
H        0.9394120329   -2.4235609083   -1.2225113162
