3    
IRC product Energy -92.35406013
C        0.0283520815   -0.0028093666    0.0002149600
N       -1.1044361741    0.0965004743   -0.0058661365
H        1.0746926305   -0.0936510357    0.0058572716
