3    
Iteration 0 Energy -92.35406013
C        0.0283520815   -0.0028093666    0.0002149600
N       -1.1044361741    0.0965004743   -0.0058661365
H        1.0746926305   -0.0936510357    0.0058572716
3    
Iteration 1 Energy -92.35406017
C        0.0283901422   -0.0026061979    0.0002210357
N       -1.1044064092    0.0963986537   -0.0058687961
H        1.0746248049   -0.0937523838    0.0058538556
