13   
Iteration 0 Energy -340.92389196
C       -2.3732654943    0.3438027855   -1.2635295025
N       -1.5457090456    0.4061998129   -0.4300578871
C        0.8900256051    0.2188863381   -0.0908735206
C       -0.5055114558    0.4864696888    0.5300527299
C       -0.7325276974   -0.4673023283    1.7100597793
N       -1.6780085290   -1.2733729777    1.8408718143
C        1.1205458509   -0.8382776118   -1.1280337490
C        1.1588888171    0.3869114861   -1.5569300790
H        1.6731086500    0.4471923806    0.6401550376
H       -0.5058421791    1.5055233851    0.9423242651
H        0.0457738835   -0.4120431824    2.4883022380
H        1.1802470769   -1.8983953765   -1.3190193887
H        1.2722745176    1.0944055995   -2.3633217374
13   
Iteration 1 Energy -340.92392041
C       -2.3624532893    0.3335062507   -1.2688689924
N       -1.5380626961    0.4034469872   -0.4297237545
C        0.8927207958    0.2208562099   -0.0877536357
C       -0.5015688175    0.4891442114    0.5324128877
C       -0.7309399660   -0.4672608493    1.7093216458
N       -1.6791011596   -1.2719997655    1.8248887336
C        1.1134211156   -0.8366820598   -1.1248922773
C        1.1523160203    0.3866469360   -1.5542465892
H        1.6791775571    0.4480701069    0.6414302582
H       -0.5029417790    1.5087816543    0.9444359393
H        0.0448763876   -0.4134143238    2.4903289981
H        1.1686789959   -1.8978138529   -1.3153977624
H        1.2625939588    1.0938980242   -2.3622532081
13   
Iteration 2 Energy -340.92392681
C       -2.3637846816    0.3344549676   -1.2695138151
N       -1.5404170226    0.4061821899   -0.4286140080
C        0.8900650584    0.2201858542   -0.0897246463
C       -0.5033845803    0.4905581043    0.5326088851
C       -0.7336947984   -0.4681118472    1.7083867785
N       -1.6778357293   -1.2762750476    1.8316377778
C        1.1139677187   -0.8370830711   -1.1262108647
C        1.1549822703    0.3856026745   -1.5550476766
H        1.6751517310    0.4462901414    0.6415619644
H       -0.5033645994    1.5099711019    0.9455423549
H        0.0452164892   -0.4112963619    2.4858450330
H        1.1705284881   -1.8983994089   -1.3161050997
H        1.2699590837    1.0931611582   -2.3623458846
13   
Iteration 3 Energy -340.92393166
C       -2.3637730435    0.3343856569   -1.2698986616
N       -1.5415732310    0.4070684190   -0.4285389068
C        0.8901988375    0.2199780698   -0.0898218376
C       -0.5037335780    0.4904182861    0.5323983633
C       -0.7331266867   -0.4679861633    1.7089185673
N       -1.6782526830   -1.2754060879    1.8285012024
C        1.1139511884   -0.8376841193   -1.1260012238
C        1.1548820154    0.3852865146   -1.5552386649
H        1.6752530899    0.4461066175    0.6413343411
H       -0.5035651547    1.5095492970    0.9455767961
H        0.0448265820   -0.4119629707    2.4875672899
H        1.1708004633   -1.8989248293   -1.3153167284
H        1.2702343935    1.0927508332   -2.3623472058
13   
Iteration 4 Energy -340.92393424
C       -2.3597074880    0.3331174403   -1.2737933281
N       -1.5410960984    0.4085976343   -0.4295324830
C        0.8906793985    0.2197974941   -0.0890662463
C       -0.5036955028    0.4907096734    0.5321429922
C       -0.7336742664   -0.4682763507    1.7084314877
N       -1.6779154008   -1.2768406241    1.8264977537
C        1.1117819198   -0.8383035007   -1.1252109669
C        1.1534840611    0.3848846142   -1.5547186136
H        1.6761896199    0.4452050802    0.6417937667
H       -0.5031181113    1.5094572009    0.9459210110
H        0.0431139402   -0.4113007487    2.4881810296
H        1.1676613490   -1.8995973720   -1.3140285045
H        1.2694218522    1.0923277841   -2.3616490271
13   
Iteration 5 Energy -340.92393646
C       -2.3561926333    0.3315041509   -1.2771204514
N       -1.5420670727    0.4114700795   -0.4289634627
C        0.8895114615    0.2189734527   -0.0894018742
C       -0.5044549149    0.4915856396    0.5324530090
C       -0.7350703940   -0.4683205207    1.7079991722
N       -1.6788750656   -1.2778086382    1.8222985916
C        1.1102379754   -0.8396654888   -1.1250444202
C        1.1530831340    0.3833320048   -1.5549616780
H        1.6747645278    0.4437523781    0.6418737824
H       -0.5023649078    1.5098020399    0.9473907159
H        0.0402803710   -0.4110550332    2.4891925643
H        1.1666673624   -1.9010930040   -1.3128773978
H        1.2719523905    1.0906209511   -2.3615926409
13   
Iteration 6 Energy -340.92393727
C       -2.3538550252    0.3311771020   -1.2796874676
N       -1.5421843149    0.4130188820   -0.4291733637
C        0.8889793163    0.2183785895   -0.0892992976
C       -0.5048543178    0.4918720262    0.5324778899
C       -0.7368023454   -0.4683860852    1.7072967197
N       -1.6798149508   -1.2789622048    1.8211536551
C        1.1092175014   -0.8405061993   -1.1247749780
C        1.1529440057    0.3822826499   -1.5548628649
H        1.6742870213    0.4428771152    0.6420420362
H       -0.5017230722    1.5099329695    0.9479499258
H        0.0375306675   -0.4106059586    2.4894164097
H        1.1656143217   -1.9020161747   -1.3124082859
H        1.2733480181    1.0893545745   -2.3615152991
13   
Iteration 7 Energy -340.92393738
C       -2.3529468762    0.3319044656   -1.2810363449
N       -1.5421392659    0.4137853295   -0.4295988375
C        0.8886528449    0.2177892029   -0.0891276143
C       -0.5051281763    0.4918754231    0.5324036988
C       -0.7382102619   -0.4683463768    1.7067784409
N       -1.6811039787   -1.2792384153    1.8201577565
C        1.1090497001   -0.8412594313   -1.1244240328
C        1.1529630354    0.3813828882   -1.5547119903
H        1.6739609327    0.4423954022    0.6421781541
H       -0.5013717805    1.5099340858    0.9480066117
H        0.0352726452   -0.4106301375    2.4897207140
H        1.1655467233   -1.9027898250   -1.3120598715
H        1.2738247015    1.0882152803   -2.3615358124
