13   
IRC product Energy -340.92655378
C       -2.2503620161    1.1768730145   -0.6444067192
N       -1.2949904731    0.9649320696    0.0137364440
C        1.0381587788    0.1983552219   -0.1762170386
C       -0.1167577597    0.6589572393    0.7469329333
C       -0.4215819530   -0.4425538230    1.7761320600
N       -0.0349066668   -0.3937670689    2.9621812910
C        0.8116804152   -0.6074728829   -1.4205992354
C        1.1380801302    0.6335258765   -1.6075460552
H        1.9424476969    0.0460579547    0.4221436810
H        0.1985095120    1.5545239091    1.2930756758
H       -0.9737799561   -1.3131005301    1.3900495685
H        0.5598888782   -1.5768547235   -1.8239122364
H        1.3533075950    1.4561025713   -2.2725990095
