13   
Iteration 0 Energy -340.92655378
C       -2.2503620161    1.1768730145   -0.6444067192
N       -1.2949904731    0.9649320696    0.0137364440
C        1.0381587788    0.1983552219   -0.1762170386
C       -0.1167577597    0.6589572393    0.7469329333
C       -0.4215819530   -0.4425538230    1.7761320600
N       -0.0349066668   -0.3937670689    2.9621812910
C        0.8116804152   -0.6074728829   -1.4205992354
C        1.1380801302    0.6335258765   -1.6075460552
H        1.9424476969    0.0460579547    0.4221436810
H        0.1985095120    1.5545239091    1.2930756758
H       -0.9737799561   -1.3131005301    1.3900495685
H        0.5598888782   -1.5768547235   -1.8239122364
H        1.3533075950    1.4561025713   -2.2725990095
13   
Iteration 1 Energy -340.92655383
C       -2.2499984051    1.1774193895   -0.6450950916
N       -1.2948292674    0.9653861662    0.0133047391
C        1.0382927074    0.1985607374   -0.1760521897
C       -0.1168088125    0.6593629086    0.7468286764
C       -0.4219682494   -0.4421121901    1.7759778222
N       -0.0357048536   -0.3935729892    2.9621667821
C        0.8117647043   -0.6076504131   -1.4201451361
C        1.1378814562    0.6333511227   -1.6075147340
H        1.9426602783    0.0465125073    0.4222557891
H        0.1983268032    1.5549754069    1.2929669339
H       -0.9740919349   -1.3125973238    1.3896452489
H        0.5600492702   -1.5771979080   -1.8230881599
H        1.3527989099    1.4557811517   -2.2728387222
