13   
Climbing Image - Chain 10 Image 6 Energy  -340.9181101937 (+5.299 kcal/mol) RMSGrad 0.052 eV/Ang
C       -1.7981386075    2.2553704881   -0.2074879506
N       -1.0856151175    1.4445169181    0.2677115131
C        0.9835714473    0.1930114916   -0.1738202880
C       -0.1995389719    0.4574787601    0.7939534842
C       -0.9772306157   -0.8356871886    1.1506895762
N       -1.9774501572   -0.8926333712    1.8912816545
C        1.0207936675   -1.0182407553   -1.0672669146
C        0.7559482166    0.1059613540   -1.6533344871
H        1.9231682593    0.6166344938    0.1918786381
H        0.2006932528    0.8480529080    1.7369977410
H       -0.5682509724   -1.7689900014    0.7305183373
H        1.1879460415   -2.0835208996   -1.1194497573
H        0.5345946306    0.6775061170   -2.5410625402
