13   
Iteration 0 Energy -341.00071247
C       -2.4998199090    1.4202704790    1.3886178920
N       -2.8297817647    2.4757086361    1.7708981222
C        1.0514703109    0.3977208336   -0.5964575204
C       -0.0991387083    0.7866303167   -0.0097758542
C       -1.1496792203   -0.1348478810    0.3825177549
N       -2.2423637049    0.1617832530    1.0144767013
C        2.2176359499   -1.7713220923   -0.2598621439
C        1.4158930365   -1.0008007548   -0.9628299098
H        1.7865037315    1.1655712523   -0.8370669666
H       -0.2604174933    1.8394932537    0.2057955645
H       -1.0216185194   -1.1880393845    0.1360930117
H        2.6273399237   -2.7706040922   -0.3161399680
H        1.0018398491   -1.3796887794   -1.9083996096
13   
Iteration 1 Energy -341.00073522
C       -2.5067671791    1.4152315796    1.3917667951
N       -2.8509814836    2.4680812359    1.7687420214
C        1.0536471775    0.4008452996   -0.5947854150
C       -0.0948208166    0.7910077948   -0.0040962970
C       -1.1425210781   -0.1328764355    0.3925059527
N       -2.2371983041    0.1580755699    1.0228582779
C        2.2167338938   -1.7738550332   -0.2623214309
C        1.4190995652   -0.9973243996   -0.9627596945
H        1.7875684134    1.1673385109   -0.8415264315
H       -0.2558838226    1.8451094589    0.2087193502
H       -1.0108368508   -1.1862074225    0.1489640495
H        2.6233430435   -2.7741178762   -0.3274396692
H        1.0088761521   -1.3709071986   -1.9122288065
13   
Iteration 2 Energy -341.00075820
C       -2.5132245568    1.4128472729    1.3870347609
N       -2.8688782867    2.4665708151    1.7508100198
C        1.0540271699    0.4000779230   -0.5922817590
C       -0.0913183324    0.7888926044    0.0053176526
C       -1.1362322215   -0.1364693309    0.4061840511
N       -2.2339117583    0.1541090294    1.0313170404
C        2.2108634448   -1.7813110511   -0.2696110044
C        1.4182402937   -0.9967719722   -0.9667852391
H        1.7854297674    1.1668883020   -0.8453324897
H       -0.2527683550    1.8432753353    0.2170727640
H       -1.0004079065   -1.1907894422    0.1694087788
H        2.6151861242   -2.7818910590   -0.3452655522
H        1.0130083778   -1.3613250073   -1.9219912937
13   
Iteration 3 Energy -341.00079006
C       -2.5240741819    1.4133494092    1.3794913513
N       -2.8910605899    2.4695306059    1.7244386878
C        1.0513903529    0.4017060462   -0.5864586184
C       -0.0886502546    0.7874218509    0.0230569703
C       -1.1298631407   -0.1397894563    0.4292545494
N       -2.2331701618    0.1516857813    1.0440377570
C        2.1987092165   -1.7880983688   -0.2797809560
C        1.4128413867   -0.9927441268   -0.9723324412
H        1.7782990732    1.1703011269   -0.8471159462
H       -0.2503783358    1.8414197873    0.2366041679
H       -0.9862065162   -1.1959039385    0.2056011857
H        2.6012841778   -2.7884697357   -0.3673696239
H        1.0138167888   -1.3441329790   -1.9350862684
13   
Iteration 4 Energy -341.00081543
C       -2.5406894090    1.4436728969    1.3503484070
N       -2.9143217702    2.5074690944    1.6633245233
C        1.0440126044    0.3959768363   -0.5798384867
C       -0.0875776429    0.7892241499    0.0405282868
C       -1.1335016145   -0.1296054893    0.4535181926
N       -2.2443392782    0.1748974446    1.0482176741
C        2.1683217570   -1.8085869836   -0.2868361195
C        1.3918565704   -0.9995062676   -0.9741131940
H        1.7725277715    1.1601636515   -0.8490642063
H       -0.2406804981    1.8445672869    0.2537328912
H       -0.9871192511   -1.1901614938    0.2541568856
H        2.5620952496   -2.8116145933   -0.3839775405
H        0.9925293729   -1.3382769056   -1.9412959536
13   
Iteration 5 Energy -341.00081686
C       -2.5529547417    1.4576588740    1.3422330807
N       -2.9294647442    2.5219972558    1.6498501946
C        1.0350969118    0.4070439179   -0.5805837627
C       -0.0929315595    0.8012047744    0.0456618177
C       -1.1390775914   -0.1172015201    0.4589031886
N       -2.2530957433    0.1880390195    1.0471706198
C        2.1604576001   -1.7978456102   -0.3003752057
C        1.3769110375   -0.9886201049   -0.9793804557
H        1.7644010825    1.1699875485   -0.8510105660
H       -0.2429629427    1.8562034941    0.2626972596
H       -0.9893350821   -1.1784857858    0.2659951566
H        2.5515622386   -2.8016211278   -0.4001281522
H        0.9654013502   -1.3279341332   -1.9411895598
13   
Iteration 6 Energy -341.00081670
C       -2.5642701556    1.4734883918    1.3416969084
N       -2.9412857214    2.5379931045    1.6481117427
C        1.0236810848    0.4213228509   -0.5808322064
C       -0.1031337836    0.8161675602    0.0471179461
C       -1.1493387974   -0.1019649792    0.4611119505
N       -2.2638045362    0.2036223056    1.0482913400
C        2.1488443102   -1.7840001604   -0.3035543592
C        1.3633068657   -0.9747890985   -0.9802484365
H        1.7533070624    1.1836823873   -0.8520102006
H       -0.2520915283    1.8711749942    0.2649094683
H       -0.9990428870   -1.1634638561    0.2697561296
H        2.5387735832   -2.7881793841   -0.4038474671
H        0.9477220735   -1.3147570083   -1.9400668993
13   
Iteration 7 Energy -341.00081680
C       -2.5701785976    1.4868347482    1.3436510213
N       -2.9460644315    2.5513871313    1.6512868117
C        1.0154363258    0.4329176918   -0.5824841705
C       -0.1109163320    0.8284479851    0.0458709931
C       -1.1572708080   -0.0891283713    0.4606836943
N       -2.2709251661    0.2169427274    1.0491515716
C        2.1393522792   -1.7728013494   -0.3038929706
C        1.3544494282   -0.9635201467   -0.9812387969
H        1.7452547576    1.1948575995   -0.8543275399
H       -0.2592860393    1.8835825381    0.2634258500
H       -1.0078761811   -1.1506508798    0.2687851167
H        2.5287996044   -2.7772341103   -0.4034758721
H        0.9389309658   -1.3036858862   -1.9410133417
13   
Iteration 8 Energy -341.00081686
C       -2.5689397241    1.4980810550    1.3419630052
N       -2.9425347518    2.5638755617    1.6480843409
C        1.0148546075    0.4345894187   -0.5819887008
C       -0.1110142052    0.8329301475    0.0454615604
C       -1.1593792967   -0.0819938653    0.4610349893
N       -2.2724623598    0.2271854428    1.0489771317
C        2.1341393192   -1.7730861565   -0.2999853143
C        1.3517332758   -0.9628330951   -0.9790653671
H        1.7460891711    1.1949412597   -0.8544976675
H       -0.2574767733    1.8886181486    0.2616088305
H       -1.0123331034   -1.1440441270    0.2702548125
H        2.5219827339   -2.7782607727   -0.3983652189
H        0.9370723441   -1.3028546770   -1.9392688206
