13   
Iteration 0 Energy -340.92501876
C       -2.1253079348    1.2818694559    0.4638327256
N       -0.9819064394    1.7733379770    0.2840190942
C        0.9280813135    0.3387762898   -0.4624247053
C       -0.0750153952    0.6445950397    0.6525584072
C       -1.0576434347   -0.4459990936    1.0178859812
N       -2.2869214291   -0.0614361034    0.9115432220
C        1.4898826200   -1.0404928606   -0.6949070857
C        0.6315505496   -0.6295082051   -1.5756805616
H        1.5486288671    1.2148648295   -0.6724376776
H        0.4750060716    0.9572519570    1.5544279493
H       -0.7997747461   -1.4500077382    1.3484514393
H        2.1760699088   -1.7949700846   -0.3386480426
H        0.0773500487   -0.7882814632   -2.4886207463
13   
Iteration 1 Energy -340.92501875
C       -2.1258821427    1.2806387261    0.4631674416
N       -0.9826881985    1.7726447773    0.2836070569
C        0.9279810234    0.3389307264   -0.4624781632
C       -0.0753985385    0.6442836305    0.6523657734
C       -1.0575002602   -0.4468645931    1.0175168211
N       -2.2869011793   -0.0627961317    0.9107380890
C        1.4899041671   -1.0402765767   -0.6949355331
C        0.6316106673   -0.6293292952   -1.5757789849
H        1.5484180421    1.2151329308   -0.6723745358
H        0.4743564411    0.9571899479    1.5543005630
H       -0.7992250747   -1.4507487779    1.3481714783
H        2.1760921888   -1.7947227712   -0.3386117103
H        0.0774724840   -0.7881153397   -2.4887544479
