13   
Iteration 0 Energy -340.97574457
C       -2.4915280162   -0.7472028129    1.6904773956
N       -3.4310904964   -0.2012685005    2.1392001850
C        0.7008643829    0.9743889230   -0.6554619376
C       -0.3944485491    0.4059985714    0.1414180219
C       -0.5032990921   -0.9314253685    0.5202865471
N       -1.4847828281   -1.4783404969    1.2453462418
C        2.1156880094    0.3892291186   -0.6046925914
C        1.4621101307    0.1339045658   -1.6856013019
H        0.5980454255    2.0432906417   -0.8462169871
H       -1.1809393729    1.0889998479    0.4587880071
H        0.2669577611   -1.6366815609    0.2163926550
H        2.9826465366    0.2977274122    0.0314182210
H        1.3594521278   -0.3370750297   -2.6511149587
13   
Iteration 1 Energy -340.97575546
C       -2.4907513979   -0.7556488642    1.6901978334
N       -3.4331886312   -0.2144794559    2.1380530509
C        0.7028252487    0.9757387628   -0.6566807882
C       -0.3942814416    0.4125224100    0.1418027601
C       -0.5036442667   -0.9230173098    0.5209484939
N       -1.4792567090   -1.4797869808    1.2444895225
C        2.1133784940    0.3854697886   -0.6042072432
C        1.4593005951    0.1306083685   -1.6835342504
H        0.6035543573    2.0455068189   -0.8493775366
H       -1.1807824056    1.0949697533    0.4601200526
H        0.2704263579   -1.6233707055    0.2136434164
H        2.9804659908    0.2910979686    0.0323071097
H        1.3551225817   -0.3429347067   -2.6483106200
13   
Iteration 2 Energy -340.97575196
C       -2.4853260552   -0.7471133230    1.6837358926
N       -3.4242759836   -0.1939643170    2.1236883682
C        0.6992289694    0.9719592704   -0.6533352197
C       -0.3942556702    0.4013939656    0.1457986182
C       -0.4983617304   -0.9341780187    0.5220000338
N       -1.4778417976   -1.4818646511    1.2456055681
C        2.1114608742    0.3898368707   -0.6054012297
C        1.4569119760    0.1353811458   -1.6835646127
H        0.5933104884    2.0425361274   -0.8416657313
H       -1.1840719876    1.0782092397    0.4679847946
H        0.2768196397   -1.6340662483    0.2144484971
H        2.9808094753    0.2973045567    0.0289596531
H        1.3539263042   -0.3358548038   -2.6500540104
13   
Iteration 3 Energy -340.97576401
C       -2.4896004535   -0.7515559691    1.6885476875
N       -3.4293763746   -0.2023862815    2.1319997191
C        0.7015719880    0.9730363213   -0.6551732828
C       -0.3930497201    0.4035387487    0.1432847501
C       -0.5019834131   -0.9322692766    0.5222880437
N       -1.4809365199   -1.4824704678    1.2463223188
C        2.1144981157    0.3903187923   -0.6062503601
C        1.4601041455    0.1355767254   -1.6854241762
H        0.5962118162    2.0431164253   -0.8438487038
H       -1.1809986473    1.0837801045    0.4629103628
H        0.2716723444   -1.6340972125    0.2165118056
H        2.9831479958    0.2979119753    0.0284040023
H        1.3575685345   -0.3355385000   -2.6515619178
13   
Iteration 4 Energy -340.97576063
C       -2.4870287983   -0.7569450856    1.6884823169
N       -3.4284912976   -0.2124163946    2.1341411363
C        0.7014547455    0.9748424184   -0.6555542395
C       -0.3953783463    0.4100941608    0.1430078244
C       -0.4995530912   -0.9270939924    0.5195671125
N       -1.4759376325   -1.4827212751    1.2432612456
C        2.1122634625    0.3867144251   -0.6038118269
C        1.4577743636    0.1319327567   -1.6832900459
H        0.5996828086    2.0447501966   -0.8463652085
H       -1.1832342148    1.0907389493    0.4622275012
H        0.2759166410   -1.6259964520    0.2120123435
H        2.9798488353    0.2921910582    0.0317743758
H        1.3545284086   -0.3411025334   -2.6482723135
13   
Iteration 5 Energy -340.97576444
C       -2.4883275018   -0.7539841382    1.6883855588
N       -3.4289502682   -0.2069824079    2.1327418456
C        0.7014790000    0.9738215604   -0.6553038111
C       -0.3943513899    0.4070380522    0.1432670193
C       -0.5007995393   -0.9294585934    0.5209486482
N       -1.4784237135   -1.4823967904    1.2448152560
C        2.1132752347    0.3883532180   -0.6049553297
C        1.4587797411    0.1335790747   -1.6842661872
H        0.5980521300    2.0438324275   -0.8451379787
H       -1.1822348795    1.0874759132    0.4627852924
H        0.2738525320   -1.6297038571    0.2141890512
H        2.9814292312    0.2948837526    0.0301295332
H        1.3558467339   -0.3385506698   -2.6498054742
13   
Iteration 6 Energy -340.97576506
C       -2.4876384043   -0.7546102414    1.6879791841
N       -3.4280442294   -0.2065288105    2.1314064601
C        0.7012981233    0.9738034293   -0.6551459385
C       -0.3936906092    0.4051830711    0.1435324746
C       -0.5001647588   -0.9311697103    0.5213601368
N       -1.4779361725   -1.4837349012    1.2451198193
C        2.1133690839    0.3894038381   -0.6054374593
C        1.4587762601    0.1347247203   -1.6846445211
H        0.5966343434    2.0439107671   -0.8441632080
H       -1.1819476876    1.0849744370    0.4633535455
H        0.2744201574   -1.6315011003    0.2146361768
H        2.9818409259    0.2959635519    0.0292786916
H        1.3561473509   -0.3371296146   -2.6503937915
13   
Iteration 7 Energy -340.97576514
C       -2.4869510745   -0.7565357175    1.6880061712
N       -3.4273864733   -0.2082102532    2.1310356940
C        0.7012211577    0.9733343874   -0.6549323858
C       -0.3934304628    0.4037814537    0.1437695457
C       -0.4994675830   -0.9326021357    0.5214996480
N       -1.4770905568   -1.4855146986    1.2451909685
C        2.1138619713    0.3903973927   -0.6060759658
C        1.4591992637    0.1358060712   -1.6852257854
H        0.5953376377    2.0434784821   -0.8431110499
H       -1.1820247086    1.0831016487    0.4637216171
H        0.2753452687   -1.6326526667    0.2147266695
H        2.9827339889    0.2972107091    0.0281473618
H        1.3570649494   -0.3354873739   -2.6513146483
