13   
step_01 start
C       -2.4535291190    1.3407802062    1.2738183757
N       -2.7647369542    2.4087026230    1.6546143565
C        1.2911393542    0.1481204875   -0.5256503082
C        0.0263424311    0.5742807374    0.0881497355
C       -1.0665029268   -0.2561405503    0.3338457530
N       -2.2309082859    0.0962592622    0.8889359841
C        1.8130723436   -1.2836401035   -0.3725554336
C        1.3421334715   -1.0003266793   -1.5381890787
H        2.0237784391    0.9495693502   -0.6271497044
H       -0.0581637589    1.6223768976    0.3709494871
H       -1.0082151266   -1.3076207548    0.0619072605
H        2.2393794035   -1.9677741079    0.3448713979
H        1.0699877367   -1.2638981632   -2.5485849183
13   
step_01 end
C       -1.4259437385   -1.5028460548    0.0359853326
N       -2.1389405473   -1.6062501799   -0.8880650789
C        0.3158016886    1.3056252195   -0.1807310747
C        0.2015594320    0.8025596539    1.0790149693
C        0.0128649085   -0.5474016296    1.5822372287
N       -0.6704592942   -1.5532369474    1.1273917497
C        0.7626817262   -0.5771864719   -1.7880990205
C        0.4374742541    0.6725467032   -1.4960573649
H        0.3970660086    2.3909423638   -0.2285082205
H        0.3226675721    1.5260810552    1.8845245172
H        0.4798650096   -0.7399662160    2.5504324159
H        1.0185570357   -1.5135747292   -1.3141813299
H        0.2953557615    1.3598863369   -2.3330689905
