13   
Iteration 0 Energy -340.92655386
C       -2.1658010158    1.3779203515   -0.7179877225
N       -1.3691764986    0.9715643080    0.0508153847
C        0.8388107442   -0.1171304789    0.1362011387
C       -0.3795391027    0.4338113602    0.9173370829
C       -0.9944451935   -0.6907281160    1.7675150119
N       -0.8031710928   -0.7996226002    2.9963906297
C        0.7117059349   -0.7909128539   -1.1975194021
C        1.2203252572    0.4017374065   -1.2178655010
H        1.6088527517   -0.4392055802    0.8449008735
H       -0.0406537417    1.2244266865    1.5953767840
H       -1.5888915716   -1.4332979585    1.2133719861
H        0.4049050501   -1.6833532124   -1.7221022983
H        1.6426527824    1.2314385998   -1.7641737041
13   
Iteration 1 Energy -340.92655393
C       -2.1655781550    1.3773249988   -0.7189032171
N       -1.3690693753    0.9713379925    0.0502115078
C        0.8389023600   -0.1172699232    0.1362388471
C       -0.3795794719    0.4339332915    0.9171219801
C       -0.9947642675   -0.6900650662    1.7678119861
N       -0.8038181916   -0.7977964521    2.9968453034
C        0.7114824181   -0.7906245583   -1.1976845156
C        1.2206350060    0.4018082940   -1.2176579369
H        1.6088433788   -0.4396949680    0.8448916746
H       -0.0408202988    1.2247661480    1.5949628345
H       -1.5891832012   -1.4329879031    1.2141087503
H        0.4042505412   -1.6827577755   -1.7225347854
H        1.6432807901    1.2315255755   -1.7636974184
