13   
Iteration 59 Energy -340.97256540
C       -1.7360551609   -1.3618211353    0.1442932584
N       -2.4351611731   -1.4267862922   -0.7921964177
C        0.2267541694    1.2342376879   -0.1419166607
C       -0.0014278213    0.8456090663    1.1352802570
C       -0.2610843201   -0.4805677177    1.6871473128
N       -1.0147202850   -1.4428234153    1.2616706023
C        0.9383457233   -0.8029006677   -1.3851294161
C        0.4494079394    0.4235301957   -1.3401421323
H        0.3130099023    2.3077427219   -0.3055430066
H        0.0418461972    1.6213153523    1.8997599997
H        0.1915485751   -0.6716712726    2.6633589399
H        1.1842226947   -1.5243604805   -2.1529508201
H        0.2360708917    0.9343585314   -2.2876145598
13   
Iteration 58 Energy -340.97256486
C       -1.7360451244   -1.3618155659    0.1443191583
N       -2.4351731126   -1.4267832174   -0.7922060284
C        0.2267655221    1.2342465454   -0.1419617858
C       -0.0014190808    0.8455917838    1.1353130446
C       -0.2610821771   -0.4805452594    1.6871506807
N       -1.0147389536   -1.4428296537    1.2616668420
C        0.9383680317   -0.8029243405   -1.3851079475
C        0.4494327813    0.4234738609   -1.3401460988
H        0.3130075656    2.3077313423   -0.3055234501
H        0.0418358460    1.6212954841    1.8996895134
H        0.1915469845   -0.6716467946    2.6633163283
H        1.1842436986   -1.5243785452   -2.1529590989
H        0.2360153516    0.9344469344   -2.2875338010
13   
Iteration 57 Energy -340.97255945
C       -1.7368515600   -1.3611998354    0.1443895078
N       -2.4360946920   -1.4259273711   -0.7917452691
C        0.2275433878    1.2338238057   -0.1415724639
C       -0.0011817940    0.8456338591    1.1351627334
C       -0.2610299156   -0.4810976168    1.6868426501
N       -1.0153386146   -1.4425739866    1.2620368747
C        0.9390117074   -0.8025417271   -1.3846161992
C        0.4484421011    0.4223799516   -1.3403934925
H        0.3092710130    2.3078527075   -0.3070463836
H        0.0432517110    1.6209921141    1.9000362535
H        0.1922168259   -0.6722359891    2.6626406078
H        1.1854877352   -1.5244442799   -2.1525608674
H        0.2380294274    0.9352009422   -2.2871565949
13   
Iteration 56 Energy -340.97252741
C       -1.7408210506   -1.3560490962    0.1443959155
N       -2.4425377277   -1.4159883316   -0.7901678140
C        0.2271452757    1.2330474541   -0.1417034401
C       -0.0008906794    0.8451877236    1.1350659767
C       -0.2604924583   -0.4823046984    1.6855233932
N       -1.0167490466   -1.4419481334    1.2601583853
C        0.9512298036   -0.8002196778   -1.3828588377
C        0.4476493320    0.4194714879   -1.3394984627
H        0.3094343862    2.3068627736   -0.3080458457
H        0.0426066711    1.6203581610    1.9001669904
H        0.1951953161   -0.6760371570    2.6596957397
H        1.1989232349   -1.5221948180   -2.1502844495
H        0.2220642760    0.9256768864   -2.2864301944
13   
Iteration 55 Energy -340.97249854
C       -1.7445346392   -1.3509682077    0.1443286342
N       -2.4486179238   -1.4068166015   -0.7889120747
C        0.2261737659    1.2323575199   -0.1421180808
C       -0.0006337737    0.8442207406    1.1351795661
C       -0.2593314428   -0.4837400659    1.6841177364
N       -1.0183921098   -1.4413074008    1.2582793806
C        0.9616394713   -0.7968615509   -1.3809702823
C        0.4449530268    0.4177698708   -1.3391066106
H        0.3099768075    2.3059974053   -0.3087720879
H        0.0433888064    1.6193328657    1.9002648793
H        0.1977240621   -0.6798554201    2.6570306167
H        1.2128363868   -1.5201266432   -2.1463754711
H        0.2075748951    0.9158600619   -2.2869288490
13   
Iteration 54 Energy -340.97243182
C       -1.7541370448   -1.3375894464    0.1425341210
N       -2.4611692232   -1.3837027383   -0.7884695951
C        0.2249157767    1.2317737089   -0.1417317461
C        0.0007882469    0.8440398790    1.1340783551
C       -0.2569823522   -0.4873715907    1.6791172240
N       -1.0225722532   -1.4384997049    1.2528651346
C        0.9887756038   -0.7890625865   -1.3736560119
C        0.4405802025    0.4118827970   -1.3365925815
H        0.3095615910    2.3047978335   -0.3111942401
H        0.0442638044    1.6168729240    1.9017990486
H        0.2073558613   -0.6912349796    2.6473571280
H        1.2434251875   -1.5156331704   -2.1339772674
H        0.1679519323    0.8895896484   -2.2861122124
13   
Iteration 53 Energy -340.97237466
C       -1.7618772051   -1.3246866010    0.1411443138
N       -2.4714543770   -1.3611937938   -0.7882223343
C        0.2232234708    1.2301350852   -0.1419379557
C        0.0031365249    0.8431023717    1.1341445768
C       -0.2548535503   -0.4903317328    1.6755946746
N       -1.0266698282   -1.4357983343    1.2484731593
C        1.0126771840   -0.7827775104   -1.3682713003
C        0.4359890712    0.4044879810   -1.3343075784
H        0.3049230885    2.3029077424   -0.3149205399
H        0.0466313951    1.6148815926    1.9029324663
H        0.2144826552   -0.7008208172    2.6399899420
H        1.2717504999   -1.5108573415   -2.1256534224
H        0.1347984037    0.8668139322   -2.2829486450
13   
Iteration 52 Energy -340.97232576
C       -1.7688383888   -1.3124543866    0.1403522204
N       -2.4797394619   -1.3407413069   -0.7883697332
C        0.2213455774    1.2280133795   -0.1426028995
C        0.0062445819    0.8414523315    1.1346406902
C       -0.2528005153   -0.4930882909    1.6730302179
N       -1.0318649257   -1.4327098030    1.2457157331
C        1.0334804161   -0.7768183330   -1.3641666241
C        0.4310074432    0.3971399215   -1.3325686162
H        0.2981674123    2.3007326868   -0.3191108102
H        0.0502079312    1.6128734728    1.9036569136
H        0.2203777325   -0.7094935571    2.6340127340
H        1.2982509048   -1.5058514666   -2.1191592277
H        0.1069186251    0.8468079263   -2.2794132415
13   
Iteration 51 Energy -340.97226233
C       -1.7755481946   -1.2977757901    0.1370838594
N       -2.4872181093   -1.3152535324   -0.7912507531
C        0.2201498649    1.2256624693   -0.1423615598
C        0.0090774710    0.8404954785    1.1352587834
C       -0.2523147197   -0.4954012621    1.6703113482
N       -1.0370218070   -1.4290312693    1.2404333904
C        1.0627234460   -0.7661215946   -1.3606760898
C        0.4230457247    0.3881132963   -1.3295541499
H        0.3008193926    2.2975879313   -0.3219812030
H        0.0559621204    1.6107943134    1.9052630205
H        0.2233444446   -0.7185560183    2.6285349561
H        1.3323292494   -1.4970648515   -2.1120320274
H        0.0574084499    0.8124134037   -2.2730122182
13   
Iteration 50 Energy -340.97221463
C       -1.7806034942   -1.2868215587    0.1354985967
N       -2.4916097484   -1.2969853526   -0.7932265433
C        0.2197261008    1.2224853637   -0.1420545735
C        0.0128200913    0.8392590706    1.1358967707
C       -0.2525558942   -0.4970418649    1.6696024393
N       -1.0424908194   -1.4252973432    1.2386727313
C        1.0834462413   -0.7586876500   -1.3603826176
C        0.4178726811    0.3803029750   -1.3276722216
H        0.2967306429    2.2941283744   -0.3256059810
H        0.0625233065    1.6089632861    1.9064220002
H        0.2237404131   -0.7244843020    2.6265945181
H        1.3571657899   -1.4895144289   -2.1100997219
H        0.0259920222    0.7895560047   -2.2676280407
13   
Iteration 49 Energy -340.97217110
C       -1.7841708920   -1.2796386748    0.1347026859
N       -2.4942848926   -1.2853421312   -0.7950758917
C        0.2183441327    1.2202009422   -0.1427828179
C        0.0152798807    0.8376726089    1.1368298320
C       -0.2538947556   -0.4974676515    1.6699251317
N       -1.0477914864   -1.4226926611    1.2381471075
C        1.1002040971   -0.7518839172   -1.3608584968
C        0.4120085526    0.3735381196   -1.3266354125
H        0.3012944386    2.2913873020   -0.3272472997
H        0.0678436742    1.6079497077    1.9063718963
H        0.2218245785   -0.7274686082    2.6262320244
H        1.3776154330   -1.4810088566   -2.1117278858
H       -0.0015154281    0.7706163945   -2.2618635165
13   
Iteration 48 Energy -340.97210983
C       -1.7878483558   -1.2695876953    0.1325555075
N       -2.4957283800   -1.2687823146   -0.7986516538
C        0.2213037771    1.2159314712   -0.1414255757
C        0.0190729149    0.8365223240    1.1381546847
C       -0.2564203445   -0.4979606425    1.6713724090
N       -1.0538592481   -1.4183467460    1.2372581666
C        1.1217917073   -0.7417621091   -1.3663249642
C        0.4073096082    0.3666809739   -1.3248553189
H        0.3006927390    2.2866541091   -0.3299028867
H        0.0764278861    1.6063530761    1.9080368381
H        0.2164744007   -0.7307838049    2.6286792996
H        1.4026662876   -1.4715120625   -2.1145362811
H       -0.0391256596    0.7424559947   -2.2543428683
13   
Iteration 47 Energy -340.97202078
C       -1.7927115117   -1.2612476018    0.1326780484
N       -2.4967548466   -1.2571447551   -0.8014386610
C        0.2206132951    1.2100879737   -0.1415299563
C        0.0239233306    0.8340963905    1.1392847157
C       -0.2616631607   -0.4973069298    1.6751448231
N       -1.0643154115   -1.4130091249    1.2407851997
C        1.1468918878   -0.7309434976   -1.3730987183
C        0.3993847674    0.3548692027   -1.3238090343
H        0.3098147473    2.2799821059   -0.3321314256
H        0.0864539825    1.6052117680    1.9074075657
H        0.2071026906   -0.7311438914    2.6340541612
H        1.4310110873   -1.4538117889   -2.1271555924
H       -0.0769935254    0.7162227227   -2.2441737692
13   
Iteration 46 Energy -340.97192315
C       -1.7960441316   -1.2534074823    0.1313019127
N       -2.4965567727   -1.2459244762   -0.8057547251
C        0.2253692903    1.2054021846   -0.1407823431
C        0.0276487185    0.8322030612    1.1418969695
C       -0.2665956717   -0.4960773523    1.6787581121
N       -1.0727770159   -1.4081705532    1.2419643929
C        1.1682715893   -0.7190161750   -1.3833044275
C        0.3948579131    0.3476577724   -1.3225984576
H        0.3148562936    2.2748352535   -0.3340448050
H        0.0967086771    1.6041768100    1.9085062661
H        0.1968037117   -0.7312061947    2.6397554592
H        1.4560039492   -1.4411396471   -2.1371530370
H       -0.1157892182    0.6865293733   -2.2325279603
13   
Iteration 45 Energy -340.97181086
C       -1.7996613913   -1.2479981553    0.1313975485
N       -2.4961213962   -1.2399920646   -0.8082247983
C        0.2266634480    1.1995483319   -0.1395482623
C        0.0316575385    0.8309263796    1.1424268143
C       -0.2726720699   -0.4947659277    1.6831647690
N       -1.0818063021   -1.4029029773    1.2462088134
C        1.1881252567   -0.7085336327   -1.3929384817
C        0.3891950083    0.3383609695   -1.3215590428
H        0.3253399630    2.2678522772   -0.3351948185
H        0.1054343935    1.6034698403    1.9082542961
H        0.1856454008   -0.7293738734    2.6470474433
H        1.4773507966   -1.4240305036   -2.1516463398
H       -0.1463933132    0.6633019104   -2.2233705843
13   
Iteration 44 Energy -340.97168820
C       -1.8023798047   -1.2431230705    0.1308327567
N       -2.4956028225   -1.2343930690   -0.8117690180
C        0.2315360293    1.1953861222   -0.1393189034
C        0.0343891030    0.8291044315    1.1453797405
C       -0.2782915513   -0.4925403111    1.6872878905
N       -1.0902022259   -1.3987329957    1.2484193353
C        1.2065893070   -0.6978126040   -1.4038195475
C        0.3854922450    0.3303756738   -1.3203512569
H        0.3334767465    2.2633515375   -0.3367783398
H        0.1137321571    1.6034197968    1.9085918766
H        0.1745603794   -0.7271331302    2.6531988502
H        1.4968119442   -1.4109775129   -2.1658805314
H       -0.1773541744    0.6389377058   -2.2097754962
13   
Iteration 43 Energy -340.97153757
C       -1.8058010955   -1.2383853060    0.1303654059
N       -2.4947572694   -1.2301758642   -0.8148257056
C        0.2350497820    1.1895153035   -0.1372267497
C        0.0379951616    0.8285302451    1.1459747112
C       -0.2852847722   -0.4905232051    1.6919718296
N       -1.0988116424   -1.3930031722    1.2521162423
C        1.2251924873   -0.6855743212   -1.4167422714
C        0.3818860085    0.3232786841   -1.3193468928
H        0.3463497984    2.2559356924   -0.3369504536
H        0.1222897555    1.6029118756    1.9088699133
H        0.1616563440   -0.7243881589    2.6613813427
H        1.5173784737   -1.3935146546   -2.1812191291
H       -0.2103856986    0.6112554558   -2.1983508859
13   
Iteration 42 Energy -340.97135192
C       -1.8087257561   -1.2349109451    0.1304859051
N       -2.4945695149   -1.2279601253   -0.8174950286
C        0.2410458187    1.1839539642   -0.1365681755
C        0.0398296344    0.8270257210    1.1492074577
C       -0.2930388311   -0.4872353760    1.6973680748
N       -1.1089137645   -1.3884337233    1.2562916869
C        1.2454568074   -0.6729072397   -1.4308135689
C        0.3764453185    0.3112689112   -1.3170814741
H        0.3603439472    2.2495206389   -0.3390003373
H        0.1303217536    1.6037137306    1.9088209605
H        0.1475197539   -0.7195117997    2.6694726817
H        1.5368910387   -1.3750376477   -2.2027361326
H       -0.2398488732    0.5863764653   -2.1819346928
13   
Iteration 41 Energy -340.97115468
C       -1.8106767464   -1.2307086050    0.1278854516
N       -2.4920478871   -1.2249824200   -0.8228030050
C        0.2473038047    1.1793590278   -0.1334586465
C        0.0425552058    0.8278443465    1.1501568120
C       -0.3008702666   -0.4839064084    1.7017961121
N       -1.1152133481   -1.3826736839    1.2571624921
C        1.2646334819   -0.6585424229   -1.4474065853
C        0.3769433359    0.3064304295   -1.3156760032
H        0.3776042389    2.2432039929   -0.3366530585
H        0.1361069562    1.6046328366    1.9095535928
H        0.1328001616   -0.7154889523    2.6777648952
H        1.5525687759   -1.3596802098   -2.2199054872
H       -0.2789503797    0.5503746433   -2.1623992132
13   
Iteration 40 Energy -340.97093392
C       -1.8136810454   -1.2278907149    0.1278038622
N       -2.4933239703   -1.2262853863   -0.8248704029
C        0.2519297657    1.1733576407   -0.1330852587
C        0.0440885529    0.8264238283    1.1543737626
C       -0.3091335010   -0.4797335537    1.7078545814
N       -1.1265356435   -1.3769362640    1.2615711637
C        1.2830985797   -0.6447341674   -1.4625549169
C        0.3710311009    0.2943311224   -1.3128903382
H        0.3923447877    2.2357179723   -0.3391285038
H        0.1476634434    1.6051906852    1.9100761380
H        0.1171402674   -0.7099421748    2.6867700314
H        1.5720335121   -1.3382149099   -2.2431888287
H       -0.3038985168    0.5245784963   -2.1467139332
13   
Iteration 39 Energy -340.97073069
C       -1.8150560141   -1.2273032422    0.1260878516
N       -2.4927909845   -1.2284431220   -0.8281742000
C        0.2602483497    1.1699014354   -0.1308960695
C        0.0437334933    0.8277922431    1.1568059214
C       -0.3169728445   -0.4756167983    1.7115086037
N       -1.1326867246   -1.3733001757    1.2628990251
C        1.2986316741   -0.6321841386   -1.4778143143
C        0.3694695171    0.2861729696   -1.3096437734
H        0.4123203061    2.2303225752   -0.3384001534
H        0.1511799687    1.6072310446    1.9108511106
H        0.1038475359   -0.7040851094    2.6931120920
H        1.5827721120   -1.3222855133   -2.2622830831
H       -0.3319390563    0.4976604059   -2.1280356540
13   
Iteration 38 Energy -340.97059996
C       -1.8156980672   -1.2276337105    0.1243494800
N       -2.4920200976   -1.2303090534   -0.8305093595
C        0.2660775600    1.1680125064   -0.1287033298
C        0.0429939448    0.8296186226    1.1573274853
C       -0.3222800126   -0.4727355843    1.7130366339
N       -1.1354017675   -1.3714940853    1.2630443252
C        1.3076536074   -0.6237694439   -1.4877966584
C        0.3690480558    0.2815990412   -1.3080277441
H        0.4269156716    2.2274651044   -0.3371730421
H        0.1509528861    1.6097431119    1.9114938873
H        0.0956101459   -0.6998563748    2.6962184129
H        1.5879242396   -1.3142585403   -2.2763422176
H       -0.3490188336    0.4794809803   -2.1109005162
13   
Iteration 37 Energy -340.97040904
C       -1.8163612039   -1.2289692704    0.1225765492
N       -2.4911399074   -1.2332869967   -0.8337269971
C        0.2751916322    1.1663836207   -0.1265231418
C        0.0400316484    0.8321930470    1.1590766506
C       -0.3302255267   -0.4686126486    1.7156188878
N       -1.1390612894   -1.3697601241    1.2631303554
C        1.3210536395   -0.6112347366   -1.5029806410
C        0.3684025649    0.2754461666   -1.3039348700
H        0.4515222041    2.2228191665   -0.3350449440
H        0.1521803350    1.6116617735    1.9121714328
H        0.0836042145   -0.6934921936    2.7011647911
H        1.5941133552   -1.2993593818   -2.2920646438
H       -0.3765543335    0.4520741515   -2.0934460725
13   
Iteration 36 Energy -340.97028329
C       -1.8169892364   -1.2286929664    0.1207531873
N       -2.4900900853   -1.2337403729   -0.8363293262
C        0.2821282038    1.1646238657   -0.1244408101
C        0.0393944518    0.8338685484    1.1590520632
C       -0.3348795618   -0.4658450763    1.7162687693
N       -1.1405867622   -1.3686328664    1.2622228305
C        1.3290523232   -0.6024931030   -1.5133790168
C        0.3688708652    0.2724895631   -1.3030021580
H        0.4670611733    2.2200160408   -0.3328999781
H        0.1485762865    1.6147825443    1.9120401170
H        0.0763284190   -0.6895669869    2.7031913425
H        1.5989744859   -1.2928863510   -2.3047820482
H       -0.3950832302    0.4319397349   -2.0726776155
13   
Iteration 35 Energy -340.97011421
C       -1.8180945513   -1.2275948199    0.1188301488
N       -2.4898573044   -1.2341361239   -0.8391290635
C        0.2883695674    1.1619386987   -0.1221402878
C        0.0397759010    0.8353635060    1.1600360113
C       -0.3410726747   -0.4627877507    1.7190797032
N       -1.1445269348   -1.3650820415    1.2625006575
C        1.3408945516   -0.5904968166   -1.5276146212
C        0.3694336981    0.2675646287   -1.3008049545
H        0.4823308082    2.2153377734   -0.3311840324
H        0.1512504387    1.6160859052    1.9125181354
H        0.0650910829   -0.6851135123    2.7086933056
H        1.6062397501   -1.2799004069   -2.3190264331
H       -0.4170770001    0.4046835341   -2.0557412125
13   
Iteration 34 Energy -340.96998813
C       -1.8191435123   -1.2280347593    0.1178691238
N       -2.4894799496   -1.2360117211   -0.8410840362
C        0.2937434650    1.1603244326   -0.1207447457
C        0.0380502664    0.8369446428    1.1608525876
C       -0.3461680340   -0.4599099574    1.7204303485
N       -1.1474242426   -1.3636354711    1.2627501100
C        1.3485801260   -0.5818732568   -1.5378053471
C        0.3693386011    0.2635270692   -1.2987685312
H        0.4970695846    2.2119730896   -0.3299182965
H        0.1514177339    1.6179564519    1.9127860139
H        0.0577466177   -0.6809902772    2.7112238645
H        1.6106724659   -1.2706158508   -2.3312663272
H       -0.4316457893    0.3862081819   -2.0403074076
13   
Iteration 33 Energy -340.96991203
C       -1.8199077900   -1.2285937975    0.1175441672
N       -2.4894021197   -1.2376046660   -0.8420600174
C        0.2969493125    1.1594004320   -0.1202118767
C        0.0363795174    0.8379378296    1.1615384352
C       -0.3493639085   -0.4580126463    1.7212310107
N       -1.1494037397   -1.3629760302    1.2630875593
C        1.3528912852   -0.5767210958   -1.5438994957
C        0.3690066656    0.2607418867   -1.2973285632
H        0.5066501636    2.2099200775   -0.3293324937
H        0.1515758499    1.6191233613    1.9130315142
H        0.0534454123   -0.6782958202    2.7125483847
H        1.6134152575   -1.2646328093   -2.3392144105
H       -0.4394785734    0.3755758524   -2.0309168575
13   
Iteration 32 Energy -340.96985665
C       -1.8205009313   -1.2288705025    0.1173691157
N       -2.4893837478   -1.2386296688   -0.8426261143
C        0.2991457466    1.1588230166   -0.1189934372
C        0.0350552435    0.8390097355    1.1613609910
C       -0.3520579968   -0.4568962666    1.7218532327
N       -1.1507385910   -1.3622728093    1.2636215835
C        1.3559930710   -0.5733251902   -1.5482915576
C        0.3687768419    0.2588192215   -1.2957127399
H        0.5137818428    2.2080214429   -0.3284612846
H        0.1522175571    1.6196310420    1.9128896991
H        0.0505229360   -0.6763581675    2.7135937916
H        1.6154853863   -1.2591820812   -2.3445026582
H       -0.4455400254    0.3670928017   -2.0260832650
13   
Iteration 31 Energy -340.96981731
C       -1.8198154143   -1.2295522113    0.1165391872
N       -2.4884185046   -1.2398206845   -0.8437596466
C        0.3003970522    1.1588207543   -0.1188602807
C        0.0337139043    0.8396626879    1.1621999632
C       -0.3529915864   -0.4560604798    1.7221325287
N       -1.1507596839   -1.3624209917    1.2630698688
C        1.3596061627   -0.5686345031   -1.5519826668
C        0.3689426122    0.2580515276   -1.2954376009
H        0.5185793267    2.2074721921   -0.3277103277
H        0.1511147466    1.6205879006    1.9133436925
H        0.0490568992   -0.6754765644    2.7140105333
H        1.6122072308   -1.2604007093   -2.3455876909
H       -0.4488754125    0.3636336560   -2.0219402034
13   
Iteration 30 Energy -340.96959601
C       -1.8253675060   -1.2309717056    0.1175507338
N       -2.4899287060   -1.2479416691   -0.8455124897
C        0.3087124886    1.1546170208   -0.1172130103
C        0.0333768877    0.8407314529    1.1627738138
C       -0.3637473188   -0.4506804059    1.7258955160
N       -1.1613292276   -1.3571526378    1.2675399512
C        1.3719542989   -0.5527660054   -1.5705819742
C        0.3682318056    0.2507296052   -1.2929911372
H        0.5440261485    2.1994864904   -0.3258765168
H        0.1585383226    1.6212832532    1.9129039733
H        0.0328726435   -0.6666884623    2.7207596465
H        1.6266915335   -1.2356659331   -2.3706652291
H       -0.4712740377    0.3308815708   -1.9985659205
13   
Iteration 29 Energy -340.96940786
C       -1.8329248231   -1.2306963914    0.1205107680
N       -2.4933654934   -1.2543593953   -0.8448911181
C        0.3134627964    1.1500134602   -0.1173034407
C        0.0356783195    0.8400378410    1.1625556414
C       -0.3717123232   -0.4469320815    1.7295309271
N       -1.1726191650   -1.3510752076    1.2734169222
C        1.3749155083   -0.5487014186   -1.5804310808
C        0.3668387848    0.2436710884   -1.2925151902
H        0.5611698698    2.1929400932   -0.3261192975
H        0.1661345890    1.6213719528    1.9116536378
H        0.0201604533   -0.6599860276    2.7268580154
H        1.6497677058   -1.2068801189   -2.3970493891
H       -0.4847488895    0.3064587795   -1.9801990386
13   
Iteration 28 Energy -340.96926109
C       -1.8369731903   -1.2315257275    0.1181674051
N       -2.4899300516   -1.2683105301   -0.8524461498
C        0.3158594263    1.1503422461   -0.1182829821
C        0.0428787507    0.8377188874    1.1628104819
C       -0.3772793370   -0.4437627250    1.7307343038
N       -1.1844885876   -1.3433659734    1.2754591763
C        1.3919454564   -0.5157804001   -1.5971289816
C        0.3625198515    0.2449416359   -1.2949506408
H        0.5740729941    2.1908765073   -0.3231076525
H        0.1844306367    1.6160132089    1.9127395909
H        0.0072289397   -0.6563570431    2.7309907681
H        1.6470540471   -1.2062122057   -2.3920135039
H       -0.5045616032    0.2812846936   -1.9669544586
13   
Iteration 27 Energy -340.96906709
C       -1.8464661119   -1.2292378855    0.1199627678
N       -2.4920275817   -1.2790267997   -0.8554311641
C        0.3171139614    1.1471268892   -0.1205866832
C        0.0531578848    0.8335158579    1.1623927454
C       -0.3836475093   -0.4404571492    1.7334976295
N       -1.2015266725   -1.3323145460    1.2815732100
C        1.3984526580   -0.5012221439   -1.6035521270
C        0.3559823601    0.2404737887   -1.2968290508
H        0.5818512981    2.1855304190   -0.3250362181
H        0.2083014557    1.6091658371    1.9120608189
H       -0.0061959320   -0.6523828300    2.7365832383
H        1.6700603525   -1.1801125735   -2.4012844817
H       -0.5222988305    0.2548037102   -1.9573333282
13   
Iteration 26 Energy -340.96887677
C       -1.8530881339   -1.2276858115    0.1197532290
N       -2.4942501580   -1.2861183973   -0.8575811014
C        0.3118663719    1.1467617559   -0.1226213287
C        0.0617722870    0.8301131962    1.1607849205
C       -0.3859620156   -0.4400213009    1.7335879313
N       -1.2118215552   -1.3247459468    1.2841961215
C        1.3985432601   -0.4860372296   -1.6104343439
C        0.3485998278    0.2404589981   -1.3002445753
H        0.5861343556    2.1841320093   -0.3256283647
H        0.2267505019    1.6034458977    1.9116416508
H       -0.0125625970   -0.6516510700    2.7381638882
H        1.6899602935   -1.1736951054   -2.3966207022
H       -0.5331851052    0.2409055787   -1.9489799686
13   
Iteration 25 Energy -340.96847703
C       -1.8573919288   -1.2263202340    0.1183873318
N       -2.4919611323   -1.2955898291   -0.8637489996
C        0.3163923791    1.1430984959   -0.1283396155
C        0.0744110804    0.8235232371    1.1613292786
C       -0.3890141501   -0.4370054893    1.7354307365
N       -1.2259467599   -1.3148300521    1.2869352467
C        1.4112764369   -0.4695619289   -1.5972227219
C        0.3390295858    0.2358112124   -1.3054040414
H        0.5849289153    2.1808711382   -0.3304034797
H        0.2559382015    1.5937498249    1.9107581173
H       -0.0260984146   -0.6482403628    2.7437785815
H        1.6897349784   -1.1473490956   -2.3947874163
H       -0.5485418588    0.2177056578   -1.9506956612
13   
Iteration 24 Energy -340.96798602
C       -1.8683089013   -1.2259500187    0.1181291379
N       -2.5016803649   -1.3018671054   -0.8639816038
C        0.2990211086    1.1439721216   -0.1335627045
C        0.0929249124    0.8154142200    1.1549735162
C       -0.3935059290   -0.4364993735    1.7328297677
N       -1.2414041194   -1.3046848131    1.2899158354
C        1.3989082607   -0.4458212974   -1.6017704734
C        0.3140207981    0.2372169785   -1.3103480303
H        0.5899031198    2.1754969376   -0.3356992018
H        0.3079906814    1.5742003853    1.9070234583
H       -0.0370826339   -0.6455304683    2.7440443129
H        1.7482748847   -1.1283011769   -2.3637632002
H       -0.5763044843    0.1982161843   -1.9517734577
13   
Iteration 23 Energy -340.96722951
C       -1.8730863713   -1.2283603694    0.1159923416
N       -2.5046554351   -1.3089755760   -0.8667313743
C        0.2935668446    1.1414977892   -0.1408327146
C        0.1070529927    0.8072883067    1.1507040434
C       -0.3974884074   -0.4350611807    1.7316388447
N       -1.2518526460   -1.2983930771    1.2909101383
C        1.3970591163   -0.4215706826   -1.5891547126
C        0.2924317845    0.2352250124   -1.3202258586
H        0.5982867611    2.1705492110   -0.3409805577
H        0.3485558889    1.5588666916    1.9027556258
H       -0.0507384883   -0.6396548643    2.7469367541
H        1.7707874675   -1.1056401398   -2.3427724433
H       -0.5971621746    0.1800914532   -1.9522227298
13   
Iteration 22 Energy -340.96616839
C       -1.8787164437   -1.2307781717    0.1153869804
N       -2.5113958052   -1.3131542622   -0.8674051095
C        0.2861695838    1.1394704320   -0.1484861071
C        0.1208285439    0.7987618595    1.1452338972
C       -0.4017139415   -0.4327470681    1.7295423939
N       -1.2617295938   -1.2938745237    1.2913540804
C        1.3895027012   -0.3990987986   -1.5811444250
C        0.2655796315    0.2366802948   -1.3286964768
H        0.6097914986    2.1611515785   -0.3468808061
H        0.3960107005    1.5391444454    1.8953410619
H       -0.0628995357   -0.6340443682    2.7481825482
H        1.8112417889   -1.0779028434   -2.3065155978
H       -0.6299117957    0.1622539999   -1.9598950830
13   
Iteration 21 Energy -340.96490887
C       -1.8837446994   -1.2347302761    0.1140522018
N       -2.5179051792   -1.3173964553   -0.8666761603
C        0.2795566225    1.1359636968   -0.1554508173
C        0.1307870395    0.7917001343    1.1376383876
C       -0.4069748742   -0.4324975431    1.7268335043
N       -1.2674538075   -1.2917211081    1.2917382729
C        1.3757425602   -0.3748135626   -1.5712998839
C        0.2411427455    0.2352078195   -1.3407344040
H        0.6244366337    2.1528948371   -0.3543258596
H        0.4351617379    1.5216991858    1.8882385960
H       -0.0721905623   -0.6274174168    2.7479545459
H        1.8455389809   -1.0553237826   -2.2729899373
H       -0.6513398649    0.1522970453   -1.9589610893
13   
Iteration 20 Energy -340.96335350
C       -1.8864082245   -1.2379304787    0.1148976004
N       -2.5239188803   -1.3199150560   -0.8653095673
C        0.2771488063    1.1337743776   -0.1634507832
C        0.1409158363    0.7830141974    1.1331319461
C       -0.4085766003   -0.4293534973    1.7253280757
N       -1.2725352383   -1.2917492798    1.2913442187
C        1.3693428796   -0.3555472854   -1.5623786443
C        0.2111667756    0.2373702457   -1.3504027927
H        0.6471046504    2.1393059892   -0.3575178046
H        0.4674328817    1.5070714199    1.8775995004
H       -0.0798849581   -0.6239193850    2.7485489624
H        1.8797445238   -1.0276159056   -2.2307130180
H       -0.6887751194    0.1413572322   -1.9750603368
13   
Iteration 19 Energy -340.96122305
C       -1.8937854657   -1.2412809235    0.1139902810
N       -2.5351753544   -1.3207762708   -0.8627062419
C        0.2754824311    1.1257129291   -0.1741433716
C        0.1502332725    0.7742956236    1.1229356074
C       -0.4137668056   -0.4299280042    1.7204792564