13   
Climbing Image - Chain 7 Image 6 Energy  -340.9231796488 (+2.117 kcal/mol) RMSGrad 0.029 eV/Ang
C       -1.9376334919    2.1301919659   -0.3495497182
N       -1.1846264793    1.4007961413    0.1913309336
C        0.9712002581    0.2500740538   -0.1448657167
C       -0.2553489524    0.4899983244    0.7790914666
C       -0.9791610583   -0.8260310127    1.1107986725
N       -0.8992433726   -1.3863937297    2.2235753572
C        1.1176500715   -1.0080547090   -0.9566252788
C        0.8120103673    0.0591645579   -1.6248343707
H        1.8631269557    0.7511923253    0.2437629247
H        0.0951523660    0.9199040768    1.7206691391
H       -1.5584191389   -1.2726956381    0.2890721824
H        1.3461663687   -2.0624589178   -0.9203171479
H        0.6092246082    0.5545284087   -2.5621334943
