13   
Iteration 1 Energy -340.96809901
C       -1.6754957300   -1.3948089402   -0.0101946516
N       -2.2954517726   -1.5279389260   -1.0037100158
C        0.5992508167    1.0506063464   -0.3214707554
C        0.4165810451    0.5975183340    1.0651135960
C       -0.2487285250   -0.4888808053    1.6456735486
N       -1.1107270933   -1.3855602457    1.1710693312
C        1.2501314195    0.1313498019   -1.3704827996
C        0.0080419669    0.4052102523   -1.5648191479
H        0.8625851930    2.1114233800   -0.3674749577
H        0.9587210927    1.2010637511    1.7934488505
H       -0.0358434490   -0.6429670701    2.7036129828
H        2.1800945362   -0.3551148188   -1.6193037241
H       -0.9091595000    0.2980989409   -2.1214622576
13   
Iteration 22 Energy -340.96809906
C       -1.6806787185   -1.3907126051   -0.0082734670
N       -2.3025094159   -1.5209022443   -1.0009941006
C        0.5966070769    1.0502227326   -0.3222363548
C        0.4173192239    0.5956723809    1.0644723135
C       -0.2484364259   -0.4901350773    1.6454860253
N       -1.1136956264   -1.3843520604    1.1719978867
C        1.2544806944    0.1342133005   -1.3700308360
C        0.0109034487    0.4006418870   -1.5656506155
H        0.8541026432    2.1125066188   -0.3682665232
H        0.9625327403    1.1975159228    1.7919529393
H       -0.0332178790   -0.6459766422    2.7026932367
H        2.1877066237   -0.3463118257   -1.6180663533
H       -0.9051143854    0.2876176125   -2.1230841510
13   
Iteration 21 Energy -340.96809884
C       -1.6836751143   -1.3881028896   -0.0071592378
N       -2.3072236183   -1.5161484739   -0.9990821090
C        0.5951227025    1.0500052501   -0.3227523951
C        0.4172880496    0.5948076168    1.0639983365
C       -0.2480957490   -0.4909587622    1.6452524997
N       -1.1148557063   -1.3840318624    1.1722422850
C        1.2570402610    0.1360642210   -1.3693623381
C        0.0125922789    0.3978859832   -1.5661888100
H        0.8486978098    2.1132232382   -0.3689626696
H        0.9646274525    1.1954868737    1.7908648313
H       -0.0310706291   -0.6480763273    2.7018968993
H        2.1920980492   -0.3415361082   -1.6163274428
H       -0.9025457865    0.2813812405   -2.1244198494
13   
Iteration 20 Energy -340.96809582
C       -1.6937885889   -1.3794910561   -0.0034100906
N       -2.3222219954   -1.5010969584   -0.9930663944
C        0.5905915641    1.0485467244   -0.3241743415
C        0.4183696711    0.5915176568    1.0630384576
C       -0.2471255688   -0.4937142642    1.6449058997
N       -1.1192962123   -1.3823626610    1.1732624112
C        1.2658060407    0.1416384475   -1.3688427377
C        0.0184185132    0.3882653764   -1.5675720856
H        0.8325448704    2.1145308678   -0.3706826518
H        0.9695485016    1.1903772503    1.7885577801
H       -0.0255784037   -0.6546529576    2.7000325441
H        2.2070260708   -0.3242266859   -1.6146569572
H       -0.8942944630    0.2606682599   -2.1273918340
13   
Iteration 19 Energy -340.96809134
C       -1.7005105343   -1.3736004911   -0.0010478677
N       -2.3337093786   -1.4897895250   -0.9883235075
C        0.5874208366    1.0480635900   -0.3252430403
C        0.4182093918    0.5900832571    1.0622263365
C       -0.2459483901   -0.4957760850    1.6440578749
N       -1.1206003791   -1.3823983203    1.1729352145
C        1.2715974122    0.1453264301   -1.3674681493
C        0.0225019158    0.3818357026   -1.5684556279
H        0.8210316938    2.1158740672   -0.3724891982
H        0.9725064745    1.1872926074    1.7867655993
H       -0.0207926997   -0.6596984836    2.6979567423
H        2.2165854776   -0.3139958921   -1.6112379022
H       -0.8882918207    0.2467831428   -2.1296764744
13   
Iteration 18 Energy -340.96808403
C       -1.7067225461   -1.3667877749    0.0007915303
N       -2.3470057777   -1.4745702813   -0.9828614550
C        0.5836481248    1.0480484716   -0.3263684570
C        0.4171991296    0.5898510599    1.0614115310
C       -0.2429830522   -0.4988991665    1.6421640508
N       -1.1190002374   -1.3841639962    1.1708669302
C        1.2770672689    0.1477144846   -1.3650409296
C        0.0267725478    0.3747127688   -1.5690065709
H        0.8095085650    2.1174807283   -0.3750106387
H        0.9713236185    1.1876154249    1.7856360727
H       -0.0132648198   -0.6668874277    2.6944477644
H        2.2255059141   -0.3062724973   -1.6052831082
H       -0.8820487356    0.2321582059   -2.1317467201
13   
Iteration 17 Energy -340.96807337
C       -1.7108854046   -1.3618118098    0.0022966938
N       -2.3580746800   -1.4612918134   -0.9777123494
C        0.5806118079    1.0477031554   -0.3269597979
C        0.4143360576    0.5909298700    1.0610211156
C       -0.2404362724   -0.5015434620    1.6405457007
N       -1.1155867373   -1.3873342655    1.1683837111
C        1.2796197120    0.1468233815   -1.3611173635
C        0.0292079436    0.3694614046   -1.5700203221
H        0.8044581509    2.1173152389   -0.3786856150
H        0.9679787832    1.1894765468    1.7849905078
H       -0.0061773077   -0.6732786161    2.6912323016
H        2.2326961961   -0.2984341824   -1.5996302073
H       -0.8777482495    0.2219845520   -2.1343443753
13   
Iteration 16 Energy -340.96805555
C       -1.7110740110   -1.3569061793    0.0015006246
N       -2.3667822873   -1.4448967113   -0.9738516946
C        0.5776333695    1.0497291476   -0.3281003741
C        0.4117328694    0.5936712850    1.0602031265
C       -0.2348386254   -0.5052608286    1.6371075462
N       -1.1064861471   -1.3933407148    1.1627998342
C        1.2816607528    0.1466079322   -1.3583434696
C        0.0310154150    0.3655800421   -1.5694549697
H        0.7964128710    2.1203416640   -0.3808443032
H        0.9589519452    1.1966970139    1.7853068557
H        0.0035243639   -0.6807846888    2.6862748230
H        2.2330220806   -0.3068454848   -1.5876293371
H       -0.8747725966    0.2154075228   -2.1349686618
13   
Iteration 15 Energy -340.96802912
C       -1.7106738788   -1.3535441127    0.0020060826
N       -2.3739040631   -1.4300903425   -0.9691685102
C        0.5745204747    1.0497554833   -0.3285104810
C        0.4060628537    0.5970064337    1.0603251592
C       -0.2311187484   -0.5082181594    1.6352137159
N       -1.0976943660   -1.4002393336    1.1586992405
C        1.2811259683    0.1422077584   -1.3526591721
C        0.0322378920    0.3626942676   -1.5703200551
H        0.7957884385    2.1196160586   -0.3846708502
H        0.9493280571    1.2033332691    1.7856133798
H        0.0119242693   -0.6869878202    2.6827802228
H        2.2345076144   -0.3075774572   -1.5809947458
H       -0.8721045116    0.2120439550   -2.1383139864
13   
Iteration 14 Energy -340.96800210
C       -1.7090069514   -1.3517018629    0.0018734849
N       -2.3776772278   -1.4192154453   -0.9661375482
C        0.5728030193    1.0506077359   -0.3291986653
C        0.4025191509    0.5992990673    1.0597454532
C       -0.2277336255   -0.5107043628    1.6333565319
N       -1.0899321096   -1.4061667929    1.1551751847
C        1.2805773747    0.1401119117   -1.3508687762
C        0.0319110486    0.3616195519   -1.5710146618
H        0.7949310853    2.1200841789   -0.3866936574
H        0.9413502859    1.2088556037    1.7856486399
H        0.0180055880   -0.6910065983    2.6800509214
H        2.2339257950   -0.3132671597   -1.5719167470
H       -0.8716734334    0.2114841724   -2.1400201601
13   
Iteration 13 Energy -340.96797678
C       -1.7072215067   -1.3506467484    0.0021329644
N       -2.3795450833   -1.4112976808   -0.9637344464
C        0.5716810452    1.0505551225   -0.3294422561
C        0.3993781545    0.6009901323    1.0598290736
C       -0.2256464386   -0.5123362865    1.6326278473
N       -1.0842243743   -1.4107500342    1.1532526048
C        1.2803297202    0.1377618497   -1.3480667844
C        0.0330773217    0.3611513995   -1.5715129727
H        0.7938046552    2.1200688697   -0.3874667146
H        0.9341014699    1.2136328100    1.7861157636
H        0.0219725551   -0.6934407677    2.6787497979
H        2.2321748245   -0.3181713944   -1.5704276663
H       -0.8698823434    0.2124827280   -2.1420572114
13   
Iteration 12 Energy -340.96795442
C       -1.7057766547   -1.3501796468    0.0023387606
N       -2.3815004058   -1.4046759483   -0.9614718703
C        0.5712233890    1.0502475129   -0.3297355303
C        0.3968199846    0.6018782413    1.0596433389
C       -0.2245373388   -0.5135680124    1.6321447722
N       -1.0794171914   -1.4149722594    1.1514856502
C        1.2795841883    0.1363867004   -1.3484499229
C        0.0324684113    0.3610089028   -1.5723679547
H        0.7959417188    2.1190130923   -0.3891987412
H        0.9289055744    1.2165257766    1.7861858905
H        0.0241099367   -0.6948668025    2.6780121555
H        2.2328495415   -0.3190010581   -1.5658329033
H       -0.8706711538    0.2122035012   -2.1427536451
13   
Iteration 11 Energy -340.96793572
C       -1.7042256976   -1.3498710310    0.0024892804
N       -2.3822496738   -1.3998938534   -0.9598915899
C        0.5716106394    1.0498384787   -0.3297871065
C        0.3952961644    0.6026285923    1.0598741566
C       -0.2236753637   -0.5143713536    1.6321478360
N       -1.0756394526   -1.4179229321    1.1503155067
C        1.2796250540    0.1355567161   -1.3478228620
C        0.0329833930    0.3609955863   -1.5732360370
H        0.7952633807    2.1188803226   -0.3886094260
H        0.9243571025    1.2194241938    1.7868092258
H        0.0250555452   -0.6955081368    2.6780300536
H        2.2314789486   -0.3222817071   -1.5664100780
H       -0.8698800399    0.2125251242   -2.1439089599
13   
Iteration 10 Energy -340.96791987
C       -1.7029318660   -1.3501914309    0.0024042361
N       -2.3823820051   -1.3975928122   -0.9591125554
C        0.5711998463    1.0499463504   -0.3293071458
C        0.3935864665    0.6033847727    1.0601368370
C       -0.2232074890   -0.5146144554    1.6319301128
N       -1.0729404680   -1.4199822000    1.1492918919
C        1.2789959915    0.1375085659   -1.3477862728
C        0.0325315317    0.3610725565   -1.5742004059
H        0.7986303865    2.1182183393   -0.3881676785
H        0.9220082178    1.2207028783    1.7870497408
H        0.0255465132   -0.6954585470    2.6778485720
H        2.2291591929   -0.3244205035   -1.5651646273
H       -0.8701963182    0.2114264858   -2.1449227049
13   
Iteration 9 Energy -340.96789619
C       -1.7018735911   -1.3507173923    0.0022524717
N       -2.3815716175   -1.3971657878   -0.9590920211
C        0.5703543785    1.0506267143   -0.3275968260
C        0.3923881960    0.6041137006    1.0608781166
C       -0.2232683532   -0.5147137457    1.6321944565
N       -1.0715322146   -1.4210162979    1.1489512515
C        1.2796211835    0.1401748874   -1.3461740130
C        0.0323423088    0.3613778611   -1.5744979419
H        0.8019564252    2.1174364134   -0.3887656005
H        0.9202576618    1.2215867450    1.7880667441
H        0.0249772114   -0.6951519379    2.6783096015
H        2.2263667389   -0.3271464090   -1.5687066260
H       -0.8700183276    0.2105952488   -2.1458196134
13   
Iteration 8 Energy -340.96779396
C       -1.6990304980   -1.3457777795    0.0060083930
N       -2.3852001961   -1.3762007520   -0.9509398022
C        0.5692723378    1.0449327779   -0.3304331939
C        0.3904165882    0.6040468147    1.0619062420
C       -0.2160778714   -0.5212560567    1.6327423293
N       -1.0592156080   -1.4307478413    1.1474627866
C        1.2786199247    0.1245242903   -1.3480728219
C        0.0340344557    0.3589923036   -1.5783984437
H        0.7900924459    2.1143453807   -0.3904486497
H        0.8992672689    1.2355938416    1.7905419674
H        0.0321456982   -0.7008465254    2.6791380632
H        2.2316144796   -0.3310716172   -1.5630316724
H       -0.8659390254    0.2234651631   -2.1564751977
13   
Iteration 7 Energy -340.96755338
C       -1.6984609148   -1.3360662080    0.0057820213
N       -2.3833336630   -1.3546385130   -0.9521400411
C        0.5826749851    1.0349435539   -0.3322400576
C        0.3752541408    0.6110642695    1.0653834902
C       -0.2160278295   -0.5243280835    1.6335061810
N       -1.0528616844   -1.4367819309    1.1434676801
C        1.2849203585    0.1234526430   -1.3528876663
C        0.0369286548    0.3503627251   -1.5689761111
H        0.7967453870    2.1058155041   -0.3949859459
H        0.8681158821    1.2533367198    1.7956746437
H        0.0396220400   -0.7101244835    2.6771551481
H        2.2361391564   -0.3285295486   -1.5852003297
H       -0.8697165131    0.2114933520   -2.1345390127
13   
Iteration 6 Energy -340.96619657
C       -1.6989252472   -1.3311556507    0.0054125462
N       -2.3792342967   -1.3503650873   -0.9554289542
C        0.5646142954    1.0435462665   -0.3182037381
C        0.3577857300    0.6244992260    1.0744378818
C       -0.2183163509   -0.5251195388    1.6355268678
N       -1.0526628145   -1.4359821903    1.1434462398
C        1.3017638592    0.1058778880   -1.3820671034
C        0.0530341356    0.3529559640   -1.5508823233
H        0.7941498134    2.1096103364   -0.3926752102
H        0.8414813036    1.2708511093    1.8068373742
H        0.0500338533   -0.7207021984    2.6743369358
H        2.2449804272   -0.3558872024   -1.6306809071
H       -0.8587047082    0.2118710778   -2.1100596094
13   
Iteration 5 Energy -340.96290766
C       -1.6998363457   -1.3293655102    0.0053053789
N       -2.3777400807   -1.3501935629   -0.9567524864
C        0.5391074424    1.0577921793   -0.3017821327
C        0.3470184399    0.6344303391    1.0805217139
C       -0.2204632747   -0.5254868694    1.6359576717
N       -1.0536113015   -1.4344625365    1.1445079494
C        1.3150028034    0.0852363351   -1.4143302229
C        0.0672405813    0.3568264768   -1.5362009670
H        0.7920331338    2.1147874173   -0.3876839840
H        0.8252540715    1.2819744187    1.8150750273
H        0.0574764150   -0.7270506237    2.6710899226
H        2.2556215395   -0.3783294053   -1.6629998919
H       -0.8471034242    0.2138413416   -2.0927079791
13   
Iteration 4 Energy -340.95865114
C       -1.7007851324   -1.3286592323    0.0055855248
N       -2.3770570439   -1.3512858093   -0.9572890481
C        0.5114007598    1.0728951230   -0.2838728364
C        0.3376930328    0.6437692666    1.0854527460
C       -0.2230009131   -0.5260827493    1.6360133702
N       -1.0546521661   -1.4330992243    1.1460732386
C        1.3259254886    0.0650499351   -1.4465548479
C        0.0814030634    0.3604534372   -1.5224442716
H        0.7931908263    2.1214027149   -0.3824935371
H        0.8103444666    1.2913182039    1.8230772495
H        0.0642046913   -0.7321970301    2.6679422200
H        2.2669187220   -0.3993043753   -1.6934803564
H       -0.8355857952    0.2157397398   -2.0780094516
13   
Iteration 3 Energy -340.95445140
C       -1.7014994087   -1.3281869097    0.0055156740
N       -2.3758851610   -1.3530232934   -0.9576746702
C        0.4838507564    1.0888288599   -0.2648454555
C        0.3290339323    0.6534893439    1.0890013712
C       -0.2260049771   -0.5266714895    1.6358755006
N       -1.0553314042   -1.4311139057    1.1484295280
C        1.3377649880    0.0447076492   -1.4775145197
C        0.0957571355    0.3633319166   -1.5089959187
H        0.7948182548    2.1252567992   -0.3718049605
H        0.7956228432    1.3026105833    1.8287809364
H        0.0696017703   -0.7366643073    2.6647616927
H        2.2752947228   -0.4196944551   -1.7272457534
H       -0.8230234523    0.2171292086   -2.0642834249
13   
Iteration 2 Energy -340.95118949
C       -1.7016909978   -1.3287488865    0.0063558989
N       -2.3737912014   -1.3563458588   -0.9575205566
C        0.4546710405    1.1034345862   -0.2446239698
C        0.3203313916    0.6651513228    1.0936365822
C       -0.2301098870   -0.5274034640    1.6370167008
N       -1.0558437814   -1.4294328120    1.1515871155
C        1.3495643018    0.0274844906   -1.5053186362
C        0.1119796023    0.3671075008   -1.4954745968
H        0.8025327776    2.1270773870   -0.3656390667
H        0.7740613853    1.3146082378    1.8406185788
H        0.0760766251   -0.7412972398    2.6624444833
H        2.2801533236   -0.4418734612   -1.7706414664
H       -0.8079345802    0.2202381972   -2.0524410669
13   
Iteration 1 Energy -340.94953426
C       -1.7015605508   -1.3253543803    0.0051824663
N       -2.3701662680   -1.3553794284   -0.9601181054
C        0.4407085424    1.1161383530   -0.2269105930
C        0.3104778282    0.6760648425    1.0965101169
C       -0.2325529707   -0.5276776807    1.6371506631
N       -1.0576446602   -1.4252298695    1.1538549125
C        1.3655885362    0.0051949273   -1.5287575975
C        0.1314051592    0.3681898166   -1.4795077690
H        0.7740610581    2.1440072557   -0.3501829693
H        0.7684751596    1.3197469307    1.8459077191
H        0.0772571314   -0.7433540235    2.6612327506
H        2.2833590913   -0.4726685571   -1.8172196830
H       -0.7894080566    0.2203218135   -2.0371419114
13   
Iteration 0 Energy -340.94931063
C       -1.7024271780   -1.3287142103    0.0087927594
N       -2.3697160507   -1.3624248677   -0.9566277640
C        0.4177158462    1.1254949063   -0.2158863581
C        0.3075965279    0.6798549587    1.0977357147
C       -0.2358616621   -0.5285782916    1.6399955348
N       -1.0603653403   -1.4242446843    1.1603950615
C        1.3737202232   -0.0014825586   -1.5430525391
C        0.1420914676    0.3726410432   -1.4757086076
H        0.7848373894    2.1416508179   -0.3417401389
H        0.7543408025    1.3272815709    1.8505338106
H        0.0805241525   -0.7448895042    2.6621450864
H        2.2836463999   -0.4843021668   -1.8463561624
H       -0.7761025780    0.2277129865   -2.0402263974
13   
Iteration 1 Energy -340.94947728
C       -1.7008332030   -1.3276983517    0.0062252296
N       -2.3672554810   -1.3623310221   -0.9591282962
C        0.3937963383    1.1387848416   -0.2048393884
C        0.3055434322    0.6867616156    1.0984269364
C       -0.2366380383   -0.5287268295    1.6385753466
N       -1.0599326543   -1.4217707210    1.1600179906
C        1.3786760753   -0.0117608556   -1.5512564054
C        0.1498185906    0.3711727792   -1.4636856113
H        0.7936828230    2.1417379633   -0.3368164217
H        0.7421047595    1.3355443366    1.8557817445
H        0.0870217418   -0.7487580585    2.6578104151
H        2.2808072735   -0.4977547056   -1.8688945163
H       -0.7667916575    0.2247990078   -2.0322170236
13   
Iteration 2 Energy -340.95063710
C       -1.6999688936   -1.3223547647    0.0057007761
N       -2.3618628519   -1.3589195275   -0.9622383312
C        0.3896203631    1.1451655195   -0.1890020355
C        0.2954953045    0.6985444568    1.1069179105
C       -0.2369562896   -0.5281584885    1.6409457866
N       -1.0604420239   -1.4169966146    1.1612740415
C        1.3979376124   -0.0347299289   -1.5693992531
C        0.1736471468    0.3737308147   -1.4508116449
H        0.7447767069    2.1660035708   -0.3205441002
H        0.7361803911    1.3422382205    1.8667236788
H        0.0872930607   -0.7520862746    2.6591956090
H        2.2759576576   -0.5396112489   -1.9275536710
H       -0.7416781841    0.2271742652   -2.0212087667
13   
Iteration 3 Energy -340.95098442
C       -1.6990417784   -1.3231594485    0.0059446782
N       -2.3604384701   -1.3606078100   -0.9619533489
C        0.3844296974    1.1478208767   -0.1863395251
C        0.2946735886    0.7000449938    1.1073139881
C       -0.2373789898   -0.5287578566    1.6418239467
N       -1.0596463429   -1.4170361325    1.1622934922
C        1.3999585205   -0.0366834498   -1.5715944663
C        0.1781673358    0.3729355771   -1.4478408344
H        0.7533340645    2.1629802419   -0.3191035924
H        0.7251182639    1.3473368593    1.8694488538
H        0.0891142014   -0.7527151365    2.6594945216
H        2.2710097466   -0.5426442736   -1.9390671854
H       -0.7392998375    0.2304855587   -2.0204205280
13   
Iteration 4 Energy -340.95149477
C       -1.6980893539   -1.3234222201    0.0062945472
N       -2.3585836936   -1.3619918323   -0.9619399991
C        0.3790099338    1.1510919205   -0.1821038922
C        0.2924076679    0.7027243888    1.1088125220
C       -0.2378977980   -0.5290876574    1.6430280541
N       -1.0591723034   -1.4166729044    1.1635050312
C        1.4042600026   -0.0408665608   -1.5754101836
C        0.1845524208    0.3726676699   -1.4435280115
H        0.7554429523    2.1634390157   -0.3156001952
H        0.7141255004    1.3529667248    1.8732755344
H        0.0906737153   -0.7536755058    2.6599505719
H        2.2659959226   -0.5510608130   -1.9581464336
H       -0.7327249667    0.2338877743   -2.0181375455
13   
Iteration 5 Energy -340.95229686
C       -1.6968917281   -1.3232223024    0.0067447790
N       -2.3561404716   -1.3632223731   -0.9623102396
C        0.3725373806    1.1556577564   -0.1757633017
C        0.2880993175    0.7067053202    1.1116573579
C       -0.2386808047   -0.5289448573    1.6446276836
N       -1.0592172604   -1.4160841399    1.1649689565
C        1.4117514592   -0.0472542976   -1.5802672582
C        0.1922409177    0.3733645155   -1.4373927508
H        0.7515423841    2.1684214042   -0.3090477930
H        0.7022100859    1.3600304408    1.8785038716
H        0.0918616062   -0.7551104850    2.6604454211
H        2.2604216366   -0.5669222498   -1.9889243801
H       -0.7197345226    0.2365812681   -2.0132423462
13   
Iteration 6 Energy -340.95233141
C       -1.6967704217   -1.3231608852    0.0067012925
N       -2.3559101750   -1.3632021636   -0.9623831194
C        0.3725204618    1.1558086693   -0.1755372638
C        0.2880594923    0.7068677752    1.1117876635
C       -0.2386692010   -0.5289307642    1.6446926996
N       -1.0591642475   -1.4160071402    1.1650146191
C        1.4122030640   -0.0475419844   -1.5803640433
C        0.1928694969    0.3733550343   -1.4371277008
H        0.7514186795    2.1683539655   -0.3087802649
H        0.7018565609    1.3601588943    1.8786408416
H        0.0919156985   -0.7551135156    2.6605265291
H        2.2596271536   -0.5671430188   -1.9895692198
H       -0.7199565622    0.2365551336   -2.0136020334
13   
Iteration 7 Energy -340.95237938
C       -1.6966432602   -1.3231067954    0.0066738684
N       -2.3556578417   -1.3632181607   -0.9624522067
C        0.3723465546    1.1560428338   -0.1751963319
C        0.2879141683    0.7071036172    1.1119671838
C       -0.2386826480   -0.5289215114    1.6447863708
N       -1.0591195989   -1.4159280313    1.1650899486
C        1.4127414763   -0.0479314704   -1.5805591609
C        0.1936019011    0.3733544597   -1.4367578337
H        0.7511888461    2.1684400699   -0.3084048013
H        0.7012599420    1.3604405532    1.8788966117
H        0.0919908416   -0.7551454698    2.6606069589
H        2.2588265329   -0.5677501414   -1.9909101266
H       -0.7197669141    0.2366200466   -2.0137404812
13   
Iteration 8 Energy -340.95244655
C       -1.6964875419   -1.3230450569    0.0066494028
N       -2.3553394066   -1.3632589710   -0.9625347612
C        0.3720422398    1.1563742010   -0.1747132549
C        0.2876688662    0.7074371388    1.1122151442
C       -0.2387161200   -0.5289152585    1.6449168905
N       -1.0590710958   -1.4158298641    1.1651987788
C        1.4134393142   -0.0484644235   -1.5808538994
C        0.1945597253    0.3733576351   -1.4362490922
H        0.7508192477    2.1686583401   -0.3078872030
H        0.7003885489    1.3608749737    1.8792882033
H        0.0920929030   -0.7552010198    2.6607028346
H        2.2578524653   -0.5687441710   -1.9929907506
H       -0.7192491462    0.2367564762   -2.0137422927
13   
Iteration 9 Energy -340.95254166
C       -1.6962867752   -1.3229709300    0.0066290256
N       -2.3549229662   -1.3633325306   -0.9626389351
C        0.3715654818    1.1568406773   -0.1740330125
C        0.2872897412    0.7079058134    1.1125600467
C       -0.2387738899   -0.5289110918    1.6450997566
N       -1.0590155597   -1.4157041626    1.1653537604
C        1.4143763546   -0.0492035344   -1.5812846864
C        0.1958385627    0.3733657926   -1.4355426479
H        0.7502629169    2.1690481536   -0.3071700553
H        0.6991349810    1.3615196568    1.8798648780
H        0.0922325945   -0.7552895737    2.6608226710
H        2.2566010157   -0.5702562625   -1.9960779105
H       -0.7183024576    0.2369879920   -2.0135828907
13   
Iteration 10 Energy -340.95267728
C       -1.6960551609   -1.3228999694    0.0066471239
N       -2.3544374366   -1.3634741430   -0.9627558077
C        0.3707803422    1.1574855170   -0.1730872230
C        0.2866648992    0.7085505767    1.1130338108
C       -0.2388770283   -0.5289117621    1.6453531372
N       -1.0589793803   -1.4155683808    1.1655676155
C        1.4155813248   -0.0502019197   -1.5819170652
C        0.1973803476    0.3734063098   -1.4345938891
H        0.7493753863    2.1698459686   -0.3062045976
H        0.6973039359    1.3625234930    1.8807454273
H        0.0924097654   -0.7554536968    2.6609439951
H        2.2551987483   -0.5727014594   -2.0008513638
H       -0.7163457436    0.2373994660   -2.0128811633
13   
Iteration 11 Energy -340.95287193
C       -1.6956599482   -1.3227453376    0.0066062701
N       -2.3536070395   -1.3636111865   -0.9629706550
C        0.3698721627    1.1583905841   -0.1717455029
C        0.2858826189    0.7094928234    1.1137356831
C       -0.2389910044   -0.5289073225    1.6457209770
N       -1.0588718910   -1.4153166450    1.1658702854
C        1.4174271957   -0.0516599554   -1.5827350483
C        0.1999470732    0.3734212656   -1.4332000891
H        0.7480936992    2.1707445135   -0.3047933447
H        0.6947860189    1.3638155324    1.8819486874
H        0.0926733557   -0.7556328704    2.6611847460
H        2.2526922889   -0.5758698751   -2.0072132403
H       -0.7142445301    0.2378784736   -2.0124087686
13   
Iteration 12 Energy -340.95312087
C       -1.6953882690   -1.3227386390    0.0068423837
N       -2.3530699802   -1.3640197688   -0.9630949777
C        0.3680171294    1.1595384880   -0.1700306164
C        0.2843754538    0.7106144754    1.1145944522
C       -0.2392326082   -0.5289150322    1.6461902722
N       -1.0589682013   -1.4152383795    1.1662404269
C        1.4194033342   -0.0534187565   -1.5839877052
C        0.2017547105    0.3736349578   -1.4315822978
H        0.7460998193    2.1731916745   -0.3031545604
H        0.6910318982    1.3661259444    1.8838516445
H        0.0929257087   -0.7561227006    2.6612293623
H        2.2511873637   -0.5816032924   -2.0177870521
H       -0.7081363591    0.2389510289   -2.0093113321
13   
Iteration 13 Energy -340.95351445
C       -1.6945072816   -1.3223660352    0.0066655765
N       -2.3512455724   -1.3641793235   -0.9635675540
C        0.3666925456    1.1612167114   -0.1675471925
C        0.2831280472    0.7123999380    1.1159578648
C       -0.2393639546   -0.5288862034    1.6469041607
N       -1.0586560361   -1.4146749405    1.1668189276
C        1.4231644101   -0.0562485213   -1.5853597670
C        0.2072240978    0.3735560311   -1.4288291846
H        0.7438109944    2.1743368612   -0.3004473859
H        0.6864463673    1.3683020153    1.8859581099
H        0.0934570168   -0.7563666320    2.6618186122
H        2.2454360956   -0.5868240819   -2.0287463620
H       -0.7055867301    0.2397341810   -2.0096258057
13   
Iteration 14 Energy -340.95410373
C       -1.6933230773   -1.3219214371    0.0066004542
N       -2.3488301369   -1.3645537425   -0.9641953010
C        0.3643952065    1.1636582840   -0.1638830260
C        0.2808914195    0.7149981386    1.1180246216
C       -0.2395900350   -0.5288478445    1.6479929913
N       -1.0583423087   -1.4140064345    1.1676594584
C        1.4286044839   -0.0604246405   -1.5874226348
C        0.2144616997    0.3735574118   -1.4248116094
H        0.7399103672    2.1770932187   -0.2965384669
H        0.6790901026    1.3720620062    1.8894358822
H        0.0941762017   -0.7569195450    2.6625432238
H        2.2376020279   -0.5959444637   -2.0471629315
H       -0.6990459510    0.2412490484   -2.0082426619
13   
Iteration 15 Energy -340.95496237
C       -1.6917400959   -1.3213243688    0.0067416096
N       -2.3457380254   -1.3650664600   -0.9650611127
C        0.3613256630    1.1668691733   -0.1589622051
C        0.2773912027    0.7184212033    1.1211011592
C       -0.2397764160   -0.5287469324    1.6495763260
N       -1.0580622456   -1.4133017012    1.1687114379
C        1.4362454556   -0.0661567478   -1.5899589018
C        0.2234435363    0.3738422156   -1.4193692010
H        0.7336561919    2.1823426478   -0.2912435276
H        0.6679475101    1.3780314207    1.8947730963
H        0.0950947628   -0.7579982799    2.6634137525
H        2.2269701300   -0.6103798631   -2.0754786769
H       -0.6867576695    0.2434676926   -2.0042437563
13   
Iteration 16 Energy -340.95597632
C       -1.6885003400   -1.3196120142    0.0056454751
N       -2.3390607090   -1.3646623151   -0.9669461916
C        0.3606051125    1.1708214604   -0.1518685167
C        0.2742497161    0.7238242924    1.1252698219
C       -0.2395455038   -0.5289609519    1.6517496035
N       -1.0562982890   -1.4113572268    1.1701849972
C        1.4485558982   -0.0746059074   -1.5917719036
C        0.2424216303    0.3734368946   -1.4114185908
H        0.7255387693    2.1852448766   -0.2834325299
H        0.6528063552    1.3845374583    1.9011482110
H        0.0969433300   -0.7586092696    2.6656398438
H        2.2021763925   -0.6249890537   -2.1076706932
H       -0.6798923621    0.2449317564   -2.0065295266
13   
Iteration 17 Energy -340.95707210
C       -1.6873427125   -1.3196205550    0.0066789457
N       -2.3371954450   -1.3659140661   -0.9673802011
C        0.3560536615    1.1739960950   -0.1476146532
C        0.2698836756    0.7265309420    1.1284013153
C       -0.2397768561   -0.5286315166    1.6534364595