13   
Frame  77 IRC: Energy =  -340.9899400000 ; +1.5487 kcal/mol
C       -1.7104945160   -1.3578085495    0.0043123850
N       -2.3923983013   -1.4246920494   -0.9545742402
C        0.5797640439    1.0528976902   -0.3278284351
C        0.3969720968    0.6052561940    1.0590691946
C       -0.2222072361   -0.5148371407    1.6310880913
N       -1.0777993905   -1.4160891928    1.1503334954
C        1.2820941780    0.1335872859   -1.3524388714
C        0.0354360974    0.3675991310   -1.5728108013
H        0.8125538636    2.1186256031   -0.3889952542
H        0.9058973718    1.2324502704    1.7913218877
H        0.0273410101   -0.6970058477    2.6761143123
H        2.2321246742   -0.3259422762   -1.5733014944
H       -0.8692838918    0.2259588816   -2.1422902698
13   
Iteration 17 Energy -340.97464493
C       -1.4182708358   -1.5579978755   -0.1114761041
N       -1.9971024127   -1.6913567864   -1.1243453704
C        0.3120878394    1.2776941389   -0.0979790283
C        0.0048896707    0.7977584387    1.1429757649
C       -0.2882010903   -0.5315571628    1.6322363844
N       -0.8546979352   -1.5664067586    1.0871534229
C        0.5651168898   -0.6802644173   -1.6236460027
C        0.5461727115    0.6234422795   -1.3716654796
H        0.4783526139    2.3535571622   -0.1322492074
H        0.0643454223    1.5270858131    1.9498367701
H       -0.0113091708   -0.6919307158    2.6769640486
H        0.7244656454   -1.3061133319   -2.4908611790
H        0.7628780242    1.3081385031   -2.2003649024
