13   
step_00 start
C       -2.1258821427    1.2806387261    0.4631674416
N       -0.9826881985    1.7726447773    0.2836070569
C        0.9279810234    0.3389307264   -0.4624781632
C       -0.0753985385    0.6442836305    0.6523657734
C       -1.0575002602   -0.4468645931    1.0175168211
N       -2.2869011793   -0.0627961317    0.9107380890
C        1.4899041671   -1.0402765767   -0.6949355331
C        0.6316106673   -0.6293292952   -1.5757789849
H        1.5484180421    1.2151329308   -0.6723745358
H        0.4743564411    0.9571899479    1.5543005630
H       -0.7992250747   -1.4507487779    1.3481714783
H        2.1760921888   -1.7947227712   -0.3386117103
H        0.0774724840   -0.7881153397   -2.4887544479
13   
step_00 end
C       -1.4839282336   -1.5927572915    0.0440473338
N       -1.7258078070   -2.1679707571   -0.9558374350
C        0.6021652703    0.9718166322   -0.5139431228
C       -0.0026093527    0.9939395991    0.8260451950
C       -0.7527403908    0.0686381205    1.5613935580
N       -1.3484616105   -1.0779211943    1.2403311320
C        1.6349494006   -0.1056242274   -0.8908378521
C        0.5153192801   -0.1622454033   -1.5225190575
H        0.7879821195    1.9824664759   -0.8893572567
H        0.2264191019    1.8983660934    1.3902060771
H       -0.8955733959    0.3264751756    2.6108710027
H        2.6272327268   -0.4565302561   -0.6550195816
H       -0.1492386456   -0.6302063370   -2.2310511089
