13   
step_01 start
C       -1.4182708358   -1.5579978755   -0.1114761041
N       -1.9971024127   -1.6913567864   -1.1243453704
C        0.3120878394    1.2776941389   -0.0979790283
C        0.0048896707    0.7977584387    1.1429757649
C       -0.2882010903   -0.5315571628    1.6322363844
N       -0.8546979352   -1.5664067586    1.0871534229
C        0.5651168898   -0.6802644173   -1.6236460027
C        0.5461727115    0.6234422795   -1.3716654796
H        0.4783526139    2.3535571622   -0.1322492074
H        0.0643454223    1.5270858131    1.9498367701
H       -0.0113091708   -0.6919307158    2.6769640486
H        0.7244656454   -1.3061133319   -2.4908611790
H        0.7628780242    1.3081385031   -2.2003649024
13   
step_01 end
C       -1.4037980598   -1.5231395281   -0.0289933919
N       -2.0754597696   -1.6299732178   -0.9828989761
C        0.3106346179    1.3083189672   -0.1689119050
C        0.1781842209    0.7915571040    1.0828056814
C       -0.0292538103   -0.5600594109    1.5697435686
N       -0.6888774117   -1.5688667853    1.0892006376
C        0.7654662164   -0.5561932395   -1.7887290079
C        0.4456497253    0.6928329286   -1.4886614275
H        0.3969043460    2.3943893188   -0.2020157297
H        0.2945101829    1.5053497842    1.8980107177
H        0.4029919850   -0.7533764285    2.5545223749
H        1.0190796421   -1.4871164759   -1.3021337907
H        0.3185810482    1.3919218097   -2.3187170179
