3    
Iteration 0 Energy -92.33969073
C       -0.7404826979   -0.8145629256    0.0000000000
N        0.0395802153    0.0435504208    0.0000000000
H        0.7009024826    0.7710125048   -0.0000000000
3    
Iteration 1 Energy -92.33969073
C       -0.7404836798   -0.8145623633   -0.0000000000
N        0.0395821717    0.0435490818   -0.0000000000
H        0.7009015081    0.7710132815   -0.0000000000
