13   
Iteration 1 Energy -340.92501854
C       -2.1253079330    1.2818694534    0.4638327410
N       -0.9819064401    1.7733379761    0.2840191121
C        0.9280813158    0.3387762952   -0.4624247075
C       -0.0750153871    0.6445950379    0.6525584059
C       -1.0576434240   -0.4459990995    1.0178859744
N       -2.2869214176   -0.0614361151    0.9115432145
C        1.4898826059   -1.0404928536   -0.6949070867
C        0.6315505434   -0.6295081968   -1.5756805591
H        1.5486288705    1.2148648308   -0.6724376837
H        0.4750060726    0.9572519478    1.5544279518
H       -0.7997747236   -1.4500077432    1.3484514117
H        2.1760698785   -1.7949700765   -0.3386480414
H        0.0773500385   -0.7882814563   -2.4886207334
13   
Iteration 14 Energy -340.92501854
C       -2.1262046047    1.2787751477    0.4609699241
N       -0.9835600367    1.7718273427    0.2808794509
C        0.9290628601    0.3386798296   -0.4614134062
C       -0.0749597539    0.6453521673    0.6524677902
C       -1.0559849785   -0.4460492044    1.0197415743
N       -2.2858118258   -0.0638214845    0.9116231951
C        1.4876305837   -1.0416767893   -0.6953903883
C        0.6312384467   -0.6272003602   -1.5763989958
H        1.5519974221    1.2135084419   -0.6696404374
H        0.4741700560    0.9609368351    1.5538313402
H       -0.7966152435   -1.4488162990    1.3529315477
H        2.1715322420   -1.7983979450   -0.3394952214
H        0.0775048327   -0.7831176819   -2.4901063733
13   
Iteration 13 Energy -340.92501872
C       -2.1255421539    1.2813589128    0.4634987747
N       -0.9823162702    1.7730069469    0.2832454287
C        0.9282384390    0.3387068990   -0.4623079479
C       -0.0751014735    0.6445750636    0.6523683317
C       -1.0574637901   -0.4460741679    1.0184324567
N       -2.2867681643   -0.0617028328    0.9120532225
C        1.4895020968   -1.0407246188   -0.6950954359
C        0.6316931917   -0.6290379549   -1.5760567127
H        1.5493085322    1.2145374302   -0.6718815936
H        0.4747340329    0.9578662894    1.5541234536
H       -0.7993707228   -1.4497815910    1.3497404597
H        2.1752177404   -1.7956108596   -0.3387804431
H        0.0778685417   -0.7871195169   -2.4893399944
13   
Iteration 12 Energy -340.92501779
C       -2.1271866755    1.2756122710    0.4583969949
N       -0.9853777152    1.7700623426    0.2769648595
C        0.9300539010    0.3384918156   -0.4603406188
C       -0.0749623497    0.6460779568    0.6522614188
C       -1.0543486460   -0.4461204418    1.0217335998
N       -2.2846848872   -0.0659989741    0.9126248616
C        1.4853044980   -1.0429667096   -0.6959142530
C        0.6311271641   -0.6247764582   -1.5772984435
H        1.5554646218    1.2119997231   -0.6666836558
H        0.4730337550    0.9648218334    1.5531751270
H       -0.7933826528   -1.4476309602    1.3574280572
H        2.1667819742   -1.8020308939   -0.3403460693
H        0.0781770123   -0.7775415046   -2.4920018784
13   
Iteration 11 Energy -340.92501134
C       -2.1292391217    1.2627968940    0.4441302301
N       -0.9901497520    1.7646984490    0.2664290382
C        0.9335569307    0.3383458456   -0.4556228674
C       -0.0736604227    0.6495814274    0.6539864271
C       -1.0474382951   -0.4460047985    1.0280762340
N       -2.2798161567   -0.0762618605    0.9078882750
C        1.4765676436   -1.0470041700   -0.6975317466
C        0.6279384725   -0.6162352726   -1.5781245719
H        1.5670170079    1.2072945601   -0.6566310539
H        0.4711619884    0.9786607362    1.5529246465
H       -0.7811098546   -1.4428538360    1.3735002661
H        2.1502943932   -1.8141873651   -0.3446481939
H        0.0748771666   -0.7588306098   -2.4943766833
13   
Iteration 10 Energy -340.92499767
C       -2.1300654171    1.2600814974    0.4351249295
N       -0.9907176722    1.7622613290    0.2637340987
C        0.9349851498    0.3384614526   -0.4526772363
C       -0.0720857146    0.6509523907    0.6569545022
C       -1.0438598163   -0.4462715712    1.0293329276
N       -2.2772474752   -0.0816527453    0.9020699991
C        1.4737395735   -1.0480602644   -0.6978665822
C        0.6246072024   -0.6135306512   -1.5761102283
H        1.5703705931    1.2058260183   -0.6536435639
H        0.4717248797    0.9841770024    1.5548155444
H       -0.7764020107   -1.4414980184    1.3770221496
H        2.1459001499   -1.8176969862   -0.3474107744
H        0.0690505577   -0.7530494537   -2.4913457659
13   
Iteration 9 Energy -340.92498083
C       -2.1253770631    1.2518198828    0.4277519507
N       -0.9890332617    1.7654633250    0.2640379258
C        0.9352388331    0.3404857398   -0.4503717671
C       -0.0698304557    0.6554759071    0.6605944603
C       -1.0397030130   -0.4468072974    1.0270305512
N       -2.2730043179   -0.0881997046    0.8888210766
C        1.4685726305   -1.0480425731   -0.6954959804
C        0.6183224878   -0.6118241911   -1.5717794997
H        1.5723920944    1.2062841927   -0.6535222559
H        0.4733107804    0.9879505471    1.5588549687
H       -0.7684323390   -1.4419492767    1.3742549326
H        2.1386572076   -1.8197369784   -0.3455159209
H        0.0588864165   -0.7509195732   -2.4846604419
13   
Iteration 8 Energy -340.92494817
C       -2.1257740327    1.2481570004    0.4194921007
N       -0.9894682905    1.7645721420    0.2687790769
C        0.9354475129    0.3432077919   -0.4487487760
C       -0.0661743781    0.6585474368    0.6648358613
C       -1.0330628274   -0.4470438824    1.0239406224
N       -2.2672416541   -0.0941397292    0.8745859315
C        1.4631024676   -1.0477128511   -0.6923726559
C        0.6120592488   -0.6105950885   -1.5674048649
H        1.5745918393    1.2065257588   -0.6551661136
H        0.4777871838    0.9913043146    1.5623028209
H       -0.7622294562   -1.4421386704    1.3703974940
H        2.1313878960   -1.8208597985   -0.3422274567
H        0.0495744906   -0.7498244245   -2.4784140406
13   
Iteration 7 Energy -340.92485719
C       -2.1223482943    1.2511656131    0.4144121886
N       -0.9862100052    1.7704217305    0.2703436456
C        0.9322541054    0.3441248224   -0.4476292399
C       -0.0663271395    0.6606781889    0.6665198575
C       -1.0304106138   -0.4482438477    1.0211818023
N       -2.2661382205   -0.1044145075    0.8700453143
C        1.4573261890   -1.0479525230   -0.6890161335
C        0.6077926310   -0.6107356509   -1.5654341791
H        1.5731934455    1.2057318215   -0.6549726572
H        0.4783010963    0.9909305283    1.5644214054
H       -0.7501160905   -1.4409904316    1.3658997025
H        2.1252813581   -1.8209595330   -0.3379949566
H        0.0474015386   -0.7497562111   -2.4777767499
13   
Iteration 6 Energy -340.92444797
C       -2.1216380089    1.2615119561    0.4104313247
N       -0.9829765159    1.7745227441    0.2695755684
C        0.9303883829    0.3436190097   -0.4468377661
C       -0.0676192759    0.6601860651    0.6670372234
C       -1.0309451969   -0.4490529302    1.0203578325
N       -2.2689836690   -0.1153492392    0.8725206257
C        1.4554621927   -1.0485498197   -0.6882365552
C        0.6067582156   -0.6110179525   -1.5652373978
H        1.5723065914    1.2050417598   -0.6537833522
H        0.4768288342    0.9903632727    1.5647897921
H       -0.7408808824   -1.4404037624    1.3649732036
H        2.1234005238   -1.8215488985   -0.3370245838
H        0.0478988085   -0.7493222050   -2.4785659152
13   
Iteration 5 Energy -340.92394964
C       -2.1216599800    1.2689866636    0.4078151765
N       -0.9811448401    1.7763619743    0.2694634829
C        0.9295782097    0.3435273717   -0.4462253819
C       -0.0686418556    0.6591486981    0.6676214103
C       -1.0306432979   -0.4498871566    1.0200076491
N       -2.2710656785   -0.1234562689    0.8746774996
C        1.4547864571   -1.0488551707   -0.6879375867
C        0.6064508035   -0.6110702570   -1.5651345708
H        1.5719237635    1.2036628626   -0.6532109914
H        0.4763178891    0.9906372508    1.5647055233
H       -0.7367908430   -1.4383807449    1.3640125380
H        2.1227559263   -1.8217221497   -0.3368092642
H        0.0481334458   -0.7489530734   -2.4789854848
13   
Iteration 4 Energy -340.91664173
C       -2.1296282287    1.3391407665    0.3826113467
N       -0.9717124049    1.7813860857    0.2682750654
C        0.9262032851    0.3409147388   -0.4449548844
C       -0.0723436372    0.6589671922    0.6674533707
C       -1.0325566341   -0.4578866115    1.0207609457
N       -2.2754706014   -0.1756403261    0.8901352928
C        1.4514418950   -1.0507495208   -0.6868616081
C        0.6046701011   -0.6118404289   -1.5649634800
H        1.5685003726    1.2033617973   -0.6494093569
H        0.4696218389    0.9846857338    1.5675157801
H       -0.7056718764   -1.4403671698    1.3648421725
H        2.1183490412   -1.8244299279   -0.3351829361
H        0.0485968488   -0.7475423295   -2.4802217083
13   
Iteration 3 Energy -340.90756903
C       -2.1367303220    1.4101427989    0.3581890067
N       -0.9660317262    1.7796604180    0.2703346099
C        0.9242723008    0.3393625249   -0.4432285791
C       -0.0776787667    0.6556866847    0.6690245789
C       -1.0299783905   -0.4655304211    1.0216862676
N       -2.2779503711   -0.2274374334    0.9060458214
C        1.4494957475   -1.0522287218   -0.6858540671
C        0.6039338271   -0.6119681964   -1.5646213072
H        1.5671999653    1.2005496668   -0.6472175676
H        0.4649346449    0.9846481581    1.5670296050
H       -0.6870630940   -1.4412032979    1.3647570478
H        2.1171856610   -1.8256782214   -0.3355389355
H        0.0484105238   -0.7460039595   -2.4806064807
13   
Iteration 2 Energy -340.90093306
C       -2.1505210620    1.4848756147    0.3292494659
N       -0.9634171816    1.7748973636    0.2697583360
C        0.9207547699    0.3363204718   -0.4422040698
C       -0.0820612154    0.6619932598    0.6657882177
C       -1.0318356584   -0.4760808892    1.0243887641
N       -2.2771447354   -0.2674586874    0.9176319054
C        1.4462525518   -1.0527758614   -0.6838582709
C        0.6025114387   -0.6123146059   -1.5648322852
H        1.5642900332    1.2002727586   -0.6387164214
H        0.4637315769    0.9660995019    1.5703863807
H       -0.6546071536   -1.4433574549    1.3672330446
H        2.1171968485   -1.8245314706   -0.3357632807
H        0.0448497874   -0.7479400011   -2.4790617864
13   
Iteration 1 Energy -340.89819778
C       -2.1535353720    1.5455506359    0.3108173062
N       -0.9614594019    1.7762494318    0.2698916222
C        0.9186227709    0.3355913919   -0.4416911947
C       -0.0841640868    0.6509582585    0.6712356624
C       -1.0255273138   -0.4865231575    1.0279343966
N       -2.2723944931   -0.3074568324    0.9329117302
C        1.4475715252   -1.0540223340   -0.6857430857
C        0.6013734954   -0.6136238666   -1.5640378453
H        1.5564544664    1.2017194902   -0.6443652417
H        0.4533616752    0.9770415706    1.5723941586
H       -0.6394219454   -1.4508878380    1.3656383306
H        2.1061996943   -1.8327824462   -0.3300029239
H        0.0529189857   -0.7418143041   -2.4849829154
13   
Iteration 0 Energy -340.89788136
C       -2.1646283951    1.5834640719    0.2930368096
N       -0.9666527311    1.7647108869    0.2730825267
C        0.9191705536    0.3339676741   -0.4405254338
C       -0.0874253532    0.6553204509    0.6684418621
C       -1.0254571428   -0.4907973023    1.0298529493
N       -2.2719719117   -0.3251872942    0.9368758008
C        1.4437715369   -1.0557329814   -0.6845585471
C        0.6016969927   -0.6116783813   -1.5652881721
H        1.5623839199    1.1982658680   -0.6361655699
H        0.4551253613    0.9690084385    1.5711654103
H       -0.6231946500   -1.4483715826    1.3719073909
H        2.1082691470   -1.8320502093   -0.3343950449
H        0.0489126725   -0.7409196392   -2.4834299818
13   
Iteration 1 Energy -340.89811300
C       -2.1704835049    1.6193148209    0.2775335051
N       -0.9726861118    1.7536405368    0.2755466526
C        0.9192873617    0.3326241532   -0.4393576870
C       -0.0910587696    0.6585969156    0.6658315772
C       -1.0256011305   -0.4953232920    1.0310066331
N       -2.2712055872   -0.3424277719    0.9404826247
C        1.4400281331   -1.0572046058   -0.6832836571
C        0.6017320681   -0.6099755223   -1.5662816194
H        1.5671899216    1.1952904884   -0.6286006389
H        0.4556825095    0.9616709018    1.5697367140
H       -0.6079890151   -1.4450494387    1.3772351246
H        2.1098624763   -1.8310642080   -0.3378512156
H        0.0452416488   -0.7400929780   -2.4819980133
13   
Iteration 2 Energy -340.89947874
C       -2.1777423302    1.6736862725    0.2603051986
N       -0.9712398499    1.7546495793    0.2766484908
C        0.9171622191    0.3321565388   -0.4390382676
C       -0.0909920806    0.6481803727    0.6714087156
C       -1.0179957390   -0.5051783374    1.0353099317
N       -2.2660613555   -0.3739330244    0.9524539544
C        1.4411590983   -1.0580992822   -0.6848219139
C        0.6003060875   -0.6113675087   -1.5652310248
H        1.5601790369    1.1964825543   -0.6346624221
H        0.4471800191    0.9731018093    1.5724654088
H       -0.5938005426   -1.4561439425    1.3743456080
H        2.0994131949   -1.8384842784   -0.3320808341
H        0.0524322419   -0.7350507533   -2.4871028453
13   
Iteration 3 Energy -340.89960724
C       -2.1765401924    1.6760929144    0.2590220307
N       -0.9728727971    1.7539518816    0.2763836833
C        0.9169409860    0.3319602425   -0.4389990025
C       -0.0917357663    0.6494521159    0.6708687920
C       -1.0185961669   -0.5055365222    1.0353071523
N       -2.2661222705   -0.3747149557    0.9525034896
C        1.4408642791   -1.0580420050   -0.6845784318
C        0.6002314403   -0.6113952055   -1.5652875801
H        1.5600299705    1.1968040316   -0.6333750791
H        0.4482580636    0.9700292266    1.5724771578
H       -0.5921895698   -1.4550215817    1.3745592796
H        2.0999700182   -1.8379624324   -0.3322419636
H        0.0517620054   -0.7356177101   -2.4866395282
13   
Iteration 4 Energy -340.89976847
C       -2.1760749991    1.6804954803    0.2570877414
N       -0.9739406445    1.7530333141    0.2763253948
C        0.9166431175    0.3317565039   -0.4388715423
C       -0.0926082507    0.6505151394    0.6704232547
C       -1.0189741474   -0.5061884757    1.0353697538
N       -2.2661626573   -0.3765435586    0.9528769742
C        1.4405381259   -1.0580256844   -0.6843381818
C        0.6001459789   -0.6113911159   -1.5653358423
H        1.5598715501    1.1968504914   -0.6321004953
H        0.4489044407    0.9674626524    1.5724332624
H       -0.5898324263   -1.4543719392    1.3748274138
H        2.1003555800   -1.8375298755   -0.3324029860
H        0.0511343322   -0.7360629324   -2.4862947475
13   
Iteration 5 Energy -340.89999283
C       -2.1760535310    1.6869323772    0.2544489266
N       -0.9747806702    1.7517108062    0.2764978617
C        0.9162518928    0.3315046740   -0.4386434444
C       -0.0936822917    0.6514889467    0.6699778500
C       -1.0192477476   -0.5071594977    1.0354533211
N       -2.2662152268   -0.3794096056    0.9535169557
C        1.4401137837   -1.0580550420   -0.6840701769
C        0.6000467322   -0.6113435197   -1.5654033051
H        1.5598410979    1.1966615374   -0.6306645845
H        0.4492619414    0.9650732857    1.5723314064
H       -0.5867243053   -1.4538270614    1.3751669317
H        2.1007806958   -1.8370851096   -0.3326846225
H        0.0504076288   -0.7364917912   -2.4859271197
13   
Iteration 6 Energy -340.90030907
C       -2.1762665087    1.6959539239    0.2507912365
N       -0.9756864804    1.7497633211    0.2768604894
C        0.9157147522    0.3311681142   -0.4382859544
C       -0.0951826080    0.6527457288    0.6693712018
C       -1.0196037417   -0.5085125328    1.0355194275
N       -2.2663458594   -0.3834414231    0.9543856006
C        1.4395025184   -1.0581139426   -0.6836984963
C        0.5999296943   -0.6112340722   -1.5655118011
H        1.5599428066    1.1962333995   -0.6286607005
H        0.4496051413    0.9620793397    1.5721060734
H       -0.5823932262   -1.4531382155    1.3757145695
H        2.1014297030   -1.8364411993   -0.3331774927
H        0.0493538086   -0.7370624419   -2.4854141538
13   
Iteration 7 Energy -340.90037943
C       -2.1767981528    1.6977237508    0.2503672909
N       -0.9753245606    1.7494810395    0.2772287554
C        0.9156771215    0.3311359390   -0.4382109554
C       -0.0950871870    0.6520337473    0.6695907831
C       -1.0192025267   -0.5088454124    1.0355999972
N       -2.2662655330   -0.3845735736    0.9547685024
C        1.4394849803   -1.0582055970   -0.6837800760
C        0.5999158046   -0.6112115943   -1.5655165919
H        1.5601686223    1.1959977483   -0.6290420677
H        0.4488649164    0.9634011209    1.5721825031
H       -0.5822697672   -1.4534109614    1.3755698944
H        2.1012971042   -1.8366826056   -0.3332520587
H        0.0495391780   -0.7368436016   -2.4855059769
13   
Iteration 8 Energy -340.90045806
C       -2.1769641459    1.6998826139    0.2495942574
N       -0.9753996722    1.7490920759    0.2773987231
C        0.9155926043    0.3310858426   -0.4381323004
C       -0.0952812122    0.6519746308    0.6695842336
C       -1.0191294137   -0.5091495808    1.0356361131
N       -2.2662393588   -0.3856256327    0.9550478969
C        1.4393847804   -1.0582444537   -0.6837410381
C        0.5998969135   -0.6111843649   -1.5655244136
H        1.5602000405    1.1958254821   -0.6288463075
H        0.4486633770    0.9633761897    1.5721505691
H       -0.5814833407   -1.4535414521    1.3756662356
H        2.1013105336   -1.8366505880   -0.3333343287
H        0.0494488941   -0.7368407627   -2.4854996405
13   
Iteration 9 Energy -340.90057034
C       -2.1771083359    1.7029213412    0.2485081725
N       -0.9756235419    1.7485557588    0.2776158888
C        0.9154737061    0.3310057984   -0.4380403895
C       -0.0955327342    0.6518564962    0.6695883526
C       -1.0190103261   -0.5096016184    1.0357102538
N       -2.2661713912   -0.3871344258    0.9554662015
C        1.4392504910   -1.0583010952   -0.6836982998
C        0.5998581433   -0.6111657328   -1.5655346567
H        1.5602186683    1.1956715736   -0.6286074987
H        0.4484181516    0.9632945527    1.5721402505
H       -0.5804516990   -1.4536287540    1.3757519967
H        2.1013179998   -1.8366421897   -0.3334208006
H        0.0493608682   -0.7368317051   -2.4854794713
13   
Iteration 10 Energy -340.90073134
C       -2.1773215919    1.7072327673    0.2469536226
N       -0.9759444767    1.7478116264    0.2779005841
C        0.9153115407    0.3309014281   -0.4379177837
C       -0.0958870532    0.6517133104    0.6695932003
C       -1.0188520467   -0.5102267715    1.0358193836
N       -2.2660693282   -0.3892470914    0.9560542063
C        1.4390651357   -1.0583765964   -0.6836320481
C        0.5998032508   -0.6111421573   -1.5655434360
H        1.5602013941    1.1954626648   -0.6282538329
H        0.4481053618    0.9631126137    1.5721175819
H       -0.5789569367   -1.4538043953    1.3759020876
H        2.1013051915   -1.8366204403   -0.3335208949
H        0.0492395587   -0.7368169586   -2.4854726707
13   
Iteration 11 Energy -340.90096308
C       -2.1775917049    1.7132799409    0.2447840706
N       -0.9764806933    1.7467554741    0.2782901130
C        0.9150702520    0.3307325956   -0.4377702567
C       -0.0963656308    0.6514523543    0.6696178866
C       -1.0185744580   -0.5111817512    1.0360190778
N       -2.2658893482   -0.3922854215    0.9569279270
C        1.4388174497   -1.0584880077   -0.6835680304
C        0.5997015728   -0.6111404008   -1.5655623317
H        1.5601876254    1.1953174074   -0.6278408029
H        0.4477055038    0.9628279117    1.5721577336
H       -0.5769958755   -1.4538123475    1.3759916053
H        2.1012831695   -1.8366706349   -0.3336224352
H        0.0491321375   -0.7367871204   -2.4854245571
13   
Iteration 12 Energy -340.90129771
C       -2.1779205593    1.7220118345    0.2416005957
N       -0.9772154488    1.7454108886    0.2787574112
C        0.9148033224    0.3306025170   -0.4375540955
C       -0.0970147557    0.6511898197    0.6696732109
C       -1.0182894797   -0.5122957521    1.0362480611
N       -2.2656388919   -0.3963701986    0.9580812202
C        1.4384872795   -1.0586133055   -0.6834075163
C        0.5996126585   -0.6110844365   -1.5655338558
H        1.5598874047    1.1948076146   -0.6271192759
H        0.4471061063    0.9624076705    1.5720412544
H       -0.5738049222   -1.4548005533    1.3765205446
H        2.1010412454   -1.8365784794   -0.3336963898
H        0.0489460408   -0.7366876196   -2.4856111648
13   
Iteration 13 Energy -340.90168636
C       -2.1788123649    1.7323312676    0.2381975210
N       -0.9787552508    1.7425290795    0.2797982685
C        0.9138027547    0.3295691674   -0.4375356471
C       -0.0980144263    0.6498519277    0.6697339721
C       -1.0166759717   -0.5160602967    1.0373801443
N       -2.2649862958   -0.4036565612    0.9605306209
C        1.4380698360   -1.0589928369   -0.6839066612
C        0.5989154105   -0.6116197485   -1.5659175473
H        1.5613860306    1.1973928720   -0.6277477127
H        0.4469494654    0.9615302589    1.5736126278
H       -0.5732930815   -1.4477887040    1.3735652863
H        2.1019640189   -1.8382400015   -0.3338109825
H        0.0494498750   -0.7368464244   -2.4838998901
13   
Iteration 14 Energy -340.90226210
C       -2.1786324092    1.7458554887    0.2330056715
N       -0.9796818372    1.7414808758    0.2801079145
C        0.9139489703    0.3300846925   -0.4370423256
C       -0.0987998203    0.6501149428    0.6698925404
C       -1.0172358745   -0.5158585718    1.0370837509
N       -2.2648003040   -0.4080009197    0.9614600086
C        1.4375932029   -1.0590120088   -0.6831401415
C        0.5992294203   -0.6110770778   -1.5655360812
H        1.5593917184    1.1941925026   -0.6255372196
H        0.4456215353    0.9612855485    1.5720687705
H       -0.5658591195   -1.4558701745    1.3772175909
H        2.1005323252   -1.8367900059   -0.3338222033
H        0.0486921923   -0.7364052923   -2.4857582759
13   
Iteration 15 Energy -340.90327282
C       -2.1791558902    1.7697986160    0.2243837265
N       -0.9823833647    1.7372820296    0.2815151050
C        0.9130696667    0.3295473497   -0.4365570381
C       -0.1006690341    0.6490083613    0.6700937452
C       -1.0161222877   -0.5196181045    1.0379441740
N       -2.2639130252   -0.4197518282    0.9648544054
C        1.4366882090   -1.0594194930   -0.6829173359
C        0.5988254829   -0.6110892822   -1.5655863446
H        1.5589761984    1.1937533749   -0.6239102668
H        0.4442682917    0.9600100799    1.5720996366
H       -0.5581827180   -1.4563331702    1.3778622099
H        2.1001528213   -1.8370357456   -0.3339912438
H        0.0484456500   -0.7361521875   -2.4857907734
13   
Iteration 16 Energy -340.90474258
C       -2.1787615860    1.8037905900    0.2123418313
N       -0.9866849308    1.7317858255    0.2833084607
C        0.9116447906    0.3287885183   -0.4360268286
C       -0.1031865055    0.6469890929    0.6706648527
C       -1.0136732236   -0.5253763277    1.0398212900
N       -2.2622742434   -0.4365659694    0.9700839697
C        1.4357370732   -1.0599324935   -0.6828597198
C        0.5981854202   -0.6112566991   -1.5656098053
H        1.5579583673    1.1936114908   -0.6226815396
H        0.4414118006    0.9592193985    1.5728024827
H       -0.5478083982   -1.4574794130    1.3779384149
H        2.0986560961   -1.8380822029   -0.3335525326
H        0.0487953393   -0.7354918105   -2.4862308759
13   
Iteration 17 Energy -340.90484091
C       -2.1788711766    1.8063546512    0.2113310563
N       -0.9866489802    1.7315124464    0.2833666506
C        0.9116090758    0.3288790734   -0.4359346343
C       -0.1034525258    0.6471608917    0.6706620471
C       -1.0138074078   -0.5254411821    1.0397873433
N       -2.2622317754   -0.4373725582    0.9702486228
C        1.4356321998   -1.0599173320   -0.6827384816
C        0.5982218072   -0.6111508848   -1.5655772054
H        1.5575597273    1.1930667242   -0.6221991916
H        0.4412065661    0.9590210093    1.5724783372
H       -0.5463004600   -1.4588344419    1.3785954105
H        2.0984270954   -1.8378556907   -0.3335332895
H        0.0486558541   -0.7354227067   -2.4864866656
13   
Iteration 18 Energy -340.90498602
C       -2.1788402418    1.8095531460    0.2102044423
N       -0.9871288431    1.7308369162    0.2835818779
C        0.9114114589    0.3287334902   -0.4358856318
C       -0.1037609656    0.6469385650    0.6706902729
C       -1.0135300980   -0.5261879004    1.0399970161
N       -2.2620680091   -0.4391299239    0.9707870853
C        1.4355170097   -1.0599865687   -0.6827693290
C        0.5981237082   -0.6112039889   -1.5656223544
H        1.5576416262    1.1932903792   -0.6220961593
H        0.4410619409    0.9588233680    1.5726435996
H       -0.5455498201   -1.4582119983    1.3783700206
H        2.0984451011   -1.8380299661   -0.3335422031
H        0.0486771327   -0.7354255183   -2.4863586372
13   
Iteration 19 Energy -340.90519097
C       -2.1786781316    1.8143118208    0.2084949293
N       -0.9877601098    1.7300389026    0.2838297269
C        0.9112032520    0.3286377516   -0.4357891495
C       -0.1041752845    0.6467241742    0.6707462192
C       -1.0132588656   -0.5269754130    1.0402150110
N       -2.2618646113   -0.4414120826    0.9714589982
C        1.4353579576   -1.0600538388   -0.6827371557
C        0.5980500768   -0.6112031226   -1.5656344138
H        1.5574908191    1.1931983327   -0.6217994784
H        0.4406952590    0.9586359330    1.5726731540
H       -0.5439878975   -1.4584400465    1.3784927431
H        2.0982721833   -1.8380976793   -0.3335229743
H        0.0486553526   -0.7353647321   -2.4864276100
13   
Iteration 20 Energy -340.90548035
C       -2.1784531928    1.8210362277    0.2060786989
N       -0.9886259208    1.7288842645    0.2841880224
C        0.9108967783    0.3284983581   -0.4356526157
C       -0.1047787655    0.6464209737    0.6708207034
C       -1.0128885499   -0.5281046032    1.0405189032
N       -2.2615691024   -0.4446437093    0.9724054090
C        1.4351220081   -1.0601484905   -0.6826977150
C        0.5979409650   -0.6112008257   -1.5656635912
H        1.5572819553    1.1930846499   -0.6213625446
H        0.4401851206    0.9583648041    1.5727020462
H       -0.5417955767   -1.4587082054    1.3786627599
H        2.0980599657   -1.8381993714   -0.3335078778
H        0.0486243151   -0.7352840726   -2.4864921988
13   
Iteration 21 Energy -340.90588824
C       -2.1780218497    1.8305572198    0.2026729326
N       -0.9898839008    1.7272822772    0.2846887398
C        0.9104725533    0.3283158739   -0.4354650677
C       -0.1056032665    0.6459430190    0.6709456193
C       -1.0123460653   -0.5296641663    1.0409556784
N       -2.2611310195   -0.4491980742    0.9737508232
C        1.4347968748   -1.0602803148   -0.6826436770
C        0.5977932538   -0.6111939053   -1.5656967563
H        1.5569364461    1.1928896353   -0.6207838957
H        0.4393755418    0.9580877643    1.5727408140
H       -0.5387108443   -1.4592535469    1.3789391782
H        2.0977115055   -1.8383431936   -0.3334702983
H        0.0486107709   -0.7351425883   -2.4866340906
13   
Iteration 22 Energy -340.90646138
C       -2.1773212048    1.8439830551    0.1978568356
N       -0.9916862307    1.7249460262    0.2853988026
C        0.9098376162    0.3280394231   -0.4351951332
C       -0.1068303080    0.6452880968    0.6711024473
C       -1.0115853207   -0.5319314517    1.0415790873
N       -2.2605135980   -0.4556496204    0.9756424213
C        1.4343212217   -1.0604672838   -0.6825668150
C        0.5975777322   -0.6111902523   -1.5657612423
H        1.5564755612    1.1926827626   -0.6199216727
H        0.4382901967    0.9576054070    1.5728073426
H       -0.5344090130   -1.4597988482    1.3792994277
H        2.0972782910   -1.8385275756   -0.3334400439
H        0.0485650562   -0.7349797386   -2.4868014571
13   
Iteration 23 Energy -340.90726201
C       -2.1759154254    1.8629888517    0.1911058600
N       -0.9943504248    1.7217700020    0.2863669696
C        0.9089613701    0.3277021302   -0.4348510357
C       -0.1084565884    0.6441792554    0.6714001255
C       -1.0104248510   -0.5350230764    1.0425145248
N       -2.2595563438   -0.4647300676    0.9783667319
C        1.4336831538   -1.0607163102   -0.6824828621
C        0.5972740681   -0.6111809434   -1.5658285796
H        1.5556232900    1.1923108041   -0.6189021599
H        0.4364232075    0.9573063176    1.5729082276
H       -0.5284078018   -1.4611357293    1.3798840454
H        2.0964780465   -1.8388509592   -0.3332996669
H        0.0486682991   -0.7346202750   -2.4871821805
13   
Iteration 24 Energy -340.90836744
C       -2.1736410576    1.8896772784    0.1814276390
N       -0.9981852674    1.7167602507    0.2877460477
C        0.9074819192    0.3270966194   -0.4342511220
C       -0.1113509134    0.6431347033    0.6715617694
C       -1.0090512920   -0.5398130818    1.0437246861
N       -2.2584088069   -0.4775284186    0.9819825347
C        1.4326069536   -1.0610601259   -0.6822787710
C        0.5968372537   -0.6111391229   -1.5660558691
H        1.5547799717    1.1920291809   -0.6167475208
H        0.4344887015    0.9557749191    1.5729618410
H       -0.5198140873   -1.4614535054    1.3807382946
H        2.0959175586   -1.8389774386   -0.3334073838
H        0.0483390663   -0.7345012586   -2.4874021459
13   
Iteration 25 Energy -340.90984364
C       -2.1681658830    1.9272295913    0.1687139421
N       -1.0041095449    1.7117235404    0.2892695161
C        0.9059268259    0.3267768869   -0.4339933277
C       -0.1134029360    0.6390272797    0.6729670461
C       -1.0058279209   -0.5452937221    1.0463126495