13   
Iteration 1 Energy -340.92501873
C       -2.4689954079    1.4605027254    0.5603555232
N       -1.3254503603    1.9514792763    0.3802319362
C        0.5838829606    0.5162522712   -0.3666245812
C       -0.4190036309    0.8222724495    0.7484630737
C       -1.4019050946   -0.2680471864    1.1138875653
N       -2.6310153379    0.1171470679    1.0078075654
C        1.1452124672   -0.8632437495   -0.5987836032
C        0.2868959542   -0.4522211229   -1.4795717099
H        1.2046438044    1.3921425285   -0.5768565326
H        0.1312615803    1.1346249420    1.6502903431
H       -1.1443819727   -1.2722143563    1.4442614788
H        1.8311886409   -1.6178480890   -0.2423872845
H       -0.2674991756   -0.6110930140   -2.3923773083
13   
Iteration 1 Energy -340.92257160
C       -2.1493903218    2.6807027882    0.0191083789
N       -1.4467597900    1.8085581564    0.3861816039
C        0.4775171920    0.5020178363   -0.3245971076
C       -0.5630200240    0.7650057788    0.7852515981
C       -1.3218875940   -0.5020147657    1.1878511421
N       -2.5589172581   -0.6659147327    1.1436313839
C        1.0688251073   -0.8548535726   -0.5871233246
C        0.2100400853   -0.4368157296   -1.4645436537
H        1.0786035692    1.4009877298   -0.4973745377
H       -0.0320368589    1.1099353292    1.6847929473
H       -0.6750730889   -1.3160565784    1.5516014651
H        1.7718097749   -1.6017678749   -0.2488495496
H       -0.3326156140   -0.5750745379   -2.3872167221
