13   
Iteration 1 Energy -340.92501876
C       -2.4696872698    1.4592330672    0.5596531426
N       -1.3262857769    1.9507015899    0.3798395137
C        0.5837019790    0.5161399090   -0.3666043059
C       -0.4193947239    0.8219586517    0.7483788075
C       -1.4020227608   -0.2686354857    1.1137063760
N       -2.6313007544    0.1159274987    1.0073636161
C        1.1455032691   -0.8631292398   -0.5990866851
C        0.2871712066   -0.4521445830   -1.4798601575
H        1.2042495337    1.3922284446   -0.5766172821
H        0.1306267358    1.1346155616    1.6502483534
H       -1.1441540604   -1.2726441294    1.4442718133
H        1.8316905417   -1.6176064627   -0.2428276398
H       -0.2670292983   -0.6109178425   -2.3928003318
13   
Iteration 1 Energy -340.92257160
C       -2.1491605080    2.6809067794    0.0184586959
N       -1.4466555696    1.8087290572    0.3856942135
C        0.4776409536    0.5020199018   -0.3247170448
C       -0.5630569280    0.7651289046    0.7849502314
C       -1.3220791326   -0.5018215720    1.1874758106
N       -2.5591189151   -0.6655894330    1.1430447093
C        1.0689015251   -0.8549093131   -0.5870447465
C        0.2102988412   -0.4368741460   -1.4646453104
H        1.0788140536    1.4009399123   -0.4974520818
H       -0.0321910092    1.1100553863    1.6845619879
H       -0.6754039795   -1.3159141304    1.5513638801
H        1.7717780974   -1.6018461794   -0.2485966079
H       -0.3322077045   -0.5751628241   -2.3874017367
