13   
step_00 start
C       -3.0160194447   -0.3616980970   -0.3503520321
N       -1.9292058305   -0.0288453638   -0.0355553666
C        0.4321373798   -0.4068933834   -0.5362136006
C       -0.5979294429    0.3238093325    0.3412689072
C       -0.3799042002   -0.0334661414    1.8217010767
N        0.0922304730    0.7691994842    2.6530840165
C        1.0077880045    0.2481565002   -1.7601766963
C        1.8031236248    0.1718765554   -0.7394512401
H        0.2915500582   -1.4927302676   -0.5120235842
H       -0.4728975794    1.4047299933    0.2274691776
H       -0.6356554644   -1.0660166142    2.1063201775
H        0.8150013056    0.5304817447   -2.7841502015
H        2.7660317832    0.3445027350   -0.2827697027
13   
step_00 end
C       -2.3528839711    0.3324960810   -1.2814878983
N       -1.5421350818    0.4139661539   -0.4299711065
C        0.8886046713    0.2175862001   -0.0889958136
C       -0.5052796585    0.4918333645    0.5322654965
C       -0.7387517686   -0.4683590878    1.7065552317
N       -1.6817954414   -1.2791785841    1.8192466965
C        1.1089758010   -0.8416478784   -1.1240943686
C        1.1531181756    0.3809348087   -1.5545724473
H        1.6738694933    0.4422568326    0.6423350183
H       -0.5014402528    1.5098878683    0.9478564699
H        0.0343522279   -0.4108043939    2.4898970053
H        1.1652733144   -1.9032021039   -1.3116304314
H        1.2740641770    1.0876040397   -2.3615188211
