13   
step_00 start
C       -2.1758885386    1.3248562248   -0.8981822475
N       -1.3415653936    0.9690207242   -0.1444656449
C        0.9118846875   -0.0247602287   -0.1025568315
C       -0.3061331133    0.4906735323    0.7031598729
C       -0.8491514302   -0.6407780216    1.5922791926
N       -0.6200449161   -0.7159171162    2.8172111561
C        0.7764967140   -0.7166056982   -1.4262232820
C        1.2410737102    0.4932379140   -1.4705439311
H        1.7104387125   -0.3109814838    0.5897868608
H        0.0179285832    1.3082755784    1.3559954709
H       -1.4266871903   -1.4188603202    1.0699062463
H        0.4892912052   -1.6249553513   -1.9343170104
H        1.6193641862    1.3318989708   -2.0351489878
13   
step_00 end
C       -2.3528840351    0.3324959807   -1.2814880251
N       -1.5421351877    0.4139661728   -0.4299712825
C        0.8886045738    0.2175862307   -0.0889957669
C       -0.5052797979    0.4918334408    0.5322654117
C       -0.7387518297   -0.4683590968    1.7065551208
N       -1.6817953130   -1.2791787787    1.8192470498
C        1.1089758119   -0.8416478485   -1.1240942989
C        1.1531183380    0.3809348094   -1.5545723680
H        1.6738692939    0.4422568140    0.6423351830
H       -0.5014403642    1.5098879395    0.9478564149
H        0.0343524265   -0.4108044065    2.4898966300
H        1.1652732723   -1.9032020229   -1.3116303459
H        1.2740644982    1.0876040665   -2.3615186911
