13   
IRC reactant Energy -340.97256540
C       -1.7360551609   -1.3618211353    0.1442932584
N       -2.4351611731   -1.4267862922   -0.7921964177
C        0.2267541694    1.2342376879   -0.1419166607
C       -0.0014278213    0.8456090663    1.1352802570
C       -0.2610843201   -0.4805677177    1.6871473128
N       -1.0147202850   -1.4428234153    1.2616706023
C        0.9383457233   -0.8029006677   -1.3851294161
C        0.4494079394    0.4235301957   -1.3401421323
H        0.3130099023    2.3077427219   -0.3055430066
H        0.0418461972    1.6213153523    1.8997599997
H        0.1915485751   -0.6716712726    2.6633589399
H        1.1842226947   -1.5243604805   -2.1529508201
H        0.2360708917    0.9343585314   -2.2876145598
