13   
Iteration 0 Energy -340.97256540
C       -1.7360551609   -1.3618211353    0.1442932584
N       -2.4351611731   -1.4267862922   -0.7921964177
C        0.2267541694    1.2342376879   -0.1419166607
C       -0.0014278213    0.8456090663    1.1352802570
C       -0.2610843201   -0.4805677177    1.6871473128
N       -1.0147202850   -1.4428234153    1.2616706023
C        0.9383457233   -0.8029006677   -1.3851294161
C        0.4494079394    0.4235301957   -1.3401421323
H        0.3130099023    2.3077427219   -0.3055430066
H        0.0418461972    1.6213153523    1.8997599997
H        0.1915485751   -0.6716712726    2.6633589399
H        1.1842226947   -1.5243604805   -2.1529508201
H        0.2360708917    0.9343585314   -2.2876145598
13   
Iteration 1 Energy -340.97271346
C       -1.6557331419   -1.4066898422    0.1119410518
N       -2.2833907594   -1.5205601380   -0.8690939597
C        0.2526053057    1.2416677878   -0.1272832008
C        0.0024229069    0.8607664123    1.1473346200
C       -0.2837625937   -0.4561582878    1.7095054590
N       -1.0124273158   -1.4345522385    1.2786278343
C        0.8307475691   -0.8213745635   -1.4033066906
C        0.4306237825    0.4355819387   -1.3361035190
H        0.3862492193    2.3115146520   -0.2840565168
H        0.0509872448    1.6400716243    1.9080969368
H        0.1345692637   -0.6282733803    2.7044706970
H        1.0244259379   -1.5452979809   -2.1839044962
H        0.2506608291    0.9714585274   -2.2765659928
13   
Iteration 2 Energy -340.97248859
C       -1.6752571909   -1.5037968289    0.1701703245
N       -2.2671791814   -1.7057044962   -0.8186476116
C        0.3031741862    1.2358091012   -0.1291687451
C        0.0026006049    0.8544001537    1.1344307063
C       -0.3419860264   -0.4328236210    1.7334225758
N       -1.0646543173   -1.4361003162    1.3524106231
C        0.7897994322   -0.8013686495   -1.4929392625
C        0.4737129478    0.4746661698   -1.3671044644
H        0.4884963036    2.3023584403   -0.2542015690
H        0.0623555590    1.6402400325    1.8877996084
H        0.0411350487   -0.5563109260    2.7496852779
H        0.9557442026   -1.4954573598   -2.3065248950
H        0.3552945904    1.0633679885   -2.2854103206
13   
Iteration 3 Energy -340.97324491
C       -1.6302869615   -1.4874655060    0.1291816404
N       -2.2361999735   -1.6673285480   -0.8558942839
C        0.2882441938    1.2483674239   -0.1274299473
C       -0.0011798898    0.8603995249    1.1381926661
C       -0.3139430809   -0.4382513393    1.7262743992
N       -1.0050076622   -1.4479443585    1.3042663971
C        0.7390814309   -0.8157486987   -1.4491639731
C        0.4556670091    0.4711416658   -1.3532413608
H        0.4632320619    2.3158644683   -0.2597960412
H        0.0591367824    1.6396167192    1.8981075146
H        0.0485018116   -0.5590339036    2.7506318145
H        0.8951861311   -1.5314750469   -2.2454155146
H        0.3615341627    1.0489269505   -2.2813654653
13   
Iteration 4 Energy -340.97366511
C       -1.5582721771   -1.5071150668    0.0998659029
N       -2.1325233164   -1.7082605775   -0.9012224838
C        0.2878403390    1.2453425438   -0.1171113934
C       -0.0070104049    0.8798847230    1.1572755097
C       -0.3220130901   -0.4188912244    1.7352530445
N       -0.9719654841   -1.4466770801    1.2906470648
C        0.6405610028   -0.8339700643   -1.4563730275
C        0.4428674652    0.4690137752   -1.3421710899
H        0.4793261284    2.3090433391   -0.2537754026
H        0.0710867710    1.6596915381    1.9149264403
H        0.0087795170   -0.5284109822    2.7712238236
H        0.7691603869   -1.5458550058   -2.2603931073
H        0.4146245435    1.0648158846   -2.2630617108
13   
Iteration 5 Energy -340.97417096
C       -1.4850938121   -1.5629006644    0.0969783222
N       -2.0145803241   -1.8130621342   -0.9195125067
C        0.3026810293    1.2479934261   -0.1169851639
C       -0.0132918071    0.8797682267    1.1565545136
C       -0.3494951593   -0.3982623090    1.7570399028
N       -0.9538650162   -1.4518430437    1.3051468692
C        0.5052979160   -0.8273512624   -1.4894029967
C        0.4453188336    0.4889038201   -1.3483726545
H        0.5280212527    2.3070472595   -0.2370504378
H        0.0869638144    1.6614044743    1.9086879384
H       -0.0706356292   -0.4712436682    2.8114108376
H        0.6016033647   -1.5316645008   -2.3037437189
H        0.5360959454    1.1061543993   -2.2507995386
13   
Iteration 6 Energy -340.97434754
C       -1.4846236918   -1.5961775134    0.1182598798
N       -2.0677053922   -1.8543553309   -0.8705039617
C        0.2842885751    1.2492564495   -0.1310657507
C       -0.0222206629    0.8741598222    1.1512998398
C       -0.3552473268   -0.3934585496    1.7538164745
N       -0.9151841534   -1.4740441882    1.2993006375
C        0.4410393271   -0.8132527258   -1.5109800739
C        0.4655168791    0.5080633002   -1.3582953622
H        0.4898995946    2.3131902386   -0.2408819690
H        0.1044124265    1.6569314532    1.8971740151
H       -0.0950292046   -0.4530566759    2.8132792095
H        0.5706309342   -1.5145127546   -2.3219351751
H        0.7022344643    1.1284456876   -2.2312969273
13   
Iteration 7 Energy -340.97455090
C       -1.5101135238   -1.5554195643    0.1149681674
N       -2.0982671980   -1.7760337457   -0.8777872222
C        0.2722848713    1.2457217553   -0.1285229989
C       -0.0174728152    0.8691049977    1.1525452112
C       -0.3366061450   -0.4065862251    1.7550091491
N       -0.9315096591   -1.4678530233    1.3001114676
C        0.5139543145   -0.8301721200   -1.4943092082
C        0.4590371441    0.4891208957   -1.3520896060
H        0.4578166322    2.3123337530   -0.2494634385
H        0.0880498569    1.6564868138    1.8973945067
H       -0.0502235690   -0.4865608636    2.8064415173
H        0.6565254790   -1.5272031306   -2.3081100166
H        0.6173995823    1.1068736447   -2.2442360208
13   
Iteration 8 Energy -340.97453672
C       -1.4805935499   -1.5753039000    0.1016592010
N       -2.0482234670   -1.8051644810   -0.8996890722
C        0.2827183760    1.2521006521   -0.1224344198
C       -0.0131024479    0.8793637884    1.1562035434
C       -0.3358594517   -0.4023828674    1.7466523169
N       -0.9227134830   -1.4717270813    1.2984533965
C        0.4669897289   -0.8256438377   -1.4836886033
C        0.4576993876    0.4943358640   -1.3488147215
H        0.4847502201    2.3156582825   -0.2430310607
H        0.0800556861    1.6661853688    1.9040862300
H       -0.0662145954   -0.4785788267    2.8026194794
H        0.5848349619   -1.5290434398   -2.2967166219
H        0.6299571335    1.1034187319   -2.2444300414
13   
Iteration 9 Energy -340.97460960
C       -1.4869011115   -1.5671777661    0.1136051355
N       -2.0599861205   -1.7906701887   -0.8866454959
C        0.2775263198    1.2409663560   -0.1255252522
C       -0.0180400994    0.8708498338    1.1552905152
C       -0.3384708688   -0.4033497922    1.7602267477
N       -0.9271465090   -1.4705416131    1.3092164634
C        0.4816305991   -0.8292190475   -1.5041791090
C        0.4628600807    0.4897286654   -1.3530400878
H        0.4722825038    2.3058857104   -0.2456209165
H        0.0744237231    1.6624696259    1.8977900651
H       -0.0670236929   -0.4740991923    2.8162211921
H        0.6104699645   -1.5212643048   -2.3248701299
H        0.6395756587    1.1081107418   -2.2412588035
13   
Iteration 10 Energy -340.97461047
C       -1.4987227560   -1.5656092813    0.1119878213
N       -2.0921076492   -1.7810603550   -0.8786466133
C        0.2697470447    1.2516350981   -0.1296746557
C       -0.0192311706    0.8705466948    1.1504913495
C       -0.3329533777   -0.4077094263    1.7482367312
N       -0.9201821861   -1.4763918525    1.2981454332
C        0.4864454913   -0.8297888556   -1.4879487118
C        0.4646636218    0.4912412100   -1.3485811771
H        0.4526246853    2.3185534515   -0.2514873165
H        0.0768901860    1.6572181125    1.8973895749
H       -0.0461742792   -0.4864684563    2.7995127414
H        0.6256764316   -1.5281580221   -2.3013537035
H        0.6532578481    1.1033563954   -2.2385703986
13   
Iteration 11 Energy -340.97463746
C       -1.4890345156   -1.5656212118    0.1111043214
N       -2.0772508678   -1.7796355511   -0.8826401409
C        0.2687857831    1.2449785252   -0.1283395628
C       -0.0208819809    0.8708014939    1.1532604975
C       -0.3324238725   -0.4069864221    1.7535672825
N       -0.9163867138   -1.4766291051    1.3009692563
C        0.4749751656   -0.8307127146   -1.4942836048
C        0.4653720893    0.4897080748   -1.3507026475
H        0.4519439589    2.3117062489   -0.2504323902
H        0.0707100692    1.6609550527    1.8973104931
H       -0.0514796693   -0.4829701350    2.8066496035
H        0.6116343851   -1.5269917846   -2.3101110196
H        0.6631893133    1.1031738588   -2.2378493818
13   
Iteration 12 Energy -340.97464013
C       -1.4887588720   -1.5666021793    0.1124031740
N       -2.0776799659   -1.7798414098   -0.8809505508
C        0.2688873480    1.2444351731   -0.1280687450
C       -0.0225501237    0.8709197133    1.1530052991
C       -0.3315597385   -0.4076001463    1.7536281434
N       -0.9153343501   -1.4778762517    1.3024651833
C        0.4728498164   -0.8323887880   -1.4977885070
C        0.4677058584    0.4874410488   -1.3493272658
H        0.4521494309    2.3110965515   -0.2509019481
H        0.0639432591    1.6620352634    1.8967347930
H       -0.0509869355   -0.4822432976    2.8069194383
H        0.6092609268   -1.5258346306   -2.3161531816
H        0.6694967828    1.1015204563   -2.2350814094
13   
Iteration 13 Energy -340.97464372
C       -1.4920693382   -1.5647041067    0.1130405061
N       -2.0850963864   -1.7741344194   -0.8785638316
C        0.2667084171    1.2436910762   -0.1291011365
C       -0.0247076885    0.8696982325    1.1515984470
C       -0.3288589267   -0.4102947650    1.7522313567
N       -0.9143634646   -1.4797668978    1.3018027604
C        0.4751095019   -0.8333175473   -1.4955975610
C        0.4700210363    0.4866862409   -1.3498141693
H        0.4465217543    2.3108405121   -0.2524677914
H        0.0571551522    1.6612380983    1.8954222768
H       -0.0430461060   -0.4863429440    2.8040443359
H        0.6132205982   -1.5279599746   -2.3126654502
H        0.6739454997    1.1000129244   -2.2356791451
13   
Iteration 14 Energy -340.97464478
C       -1.4936693155   -1.5640982773    0.1125981551
N       -2.0895140317   -1.7720497265   -0.8776005176
C        0.2647309643    1.2435899490   -0.1297996074
C       -0.0271837291    0.8695120199    1.1507187165
C       -0.3276975515   -0.4117265669    1.7508876076
N       -0.9129019578   -1.4811330080    1.3001446700
C        0.4739150341   -0.8344153988   -1.4944962499
C        0.4714321868    0.4856798203   -1.3494749342
H        0.4419230248    2.3110829841   -0.2537866289
H        0.0530350138    1.6611059132    1.8946358579
H       -0.0376669119   -0.4893559665    2.8014591895
H        0.6132690566   -1.5300355794   -2.3105107525
H        0.6806089593    1.0982484607   -2.2346325646
13   
Iteration 15 Energy -340.97464491
C       -1.4948346827   -1.5643226181    0.1124877072
N       -2.0912325262   -1.7726787308   -0.8772785263
C        0.2644820160    1.2433298681   -0.1300598020
C       -0.0282656298    0.8693821380    1.1502435540
C       -0.3276735329   -0.4123263744    1.7501655970
N       -0.9129420885   -1.4816166537    1.2995120603
C        0.4737575721   -0.8349126398   -1.4946131829
C        0.4719209894    0.4851260159   -1.3495221267
H        0.4413454424    2.3108565226   -0.2541910009
H        0.0512105952    1.6610461745    1.8941740951
H       -0.0367566152   -0.4902682608    2.8004686839
H        0.6132314419   -1.5308653695   -2.3103027251
H        0.6824139897    1.0976261165   -2.2344209171
