13   
Iteration 52 Energy -340.95303755
C       -2.9352544831   -0.1612746334   -0.4688514566
N       -1.8278157188    0.0890292144   -0.1584874476
C        0.5066590049   -0.4320546771   -0.6601820773
C       -0.4754354545    0.3634923242    0.2149861696
C       -0.2812426991    0.0012483422    1.6975047621
N        0.2305527005    0.7825639411    2.5264191430
C        1.0735951780    0.1651983616   -1.9193074134
C        1.8929186443    0.0914268017   -0.9151509575
H        0.3298573527   -1.5105473852   -0.6016677948
H       -0.2900564490    1.4347096419    0.0939001745
H       -0.5935049171   -1.0125231629    1.9933212041
H        0.8657506744    0.4188790932   -2.9471497608
H        2.8737157975    0.2391740890   -0.4904060565
