13   
Iteration 0 Energy -340.92650204
C       -2.9352544831   -0.1612746334   -0.4688514566
N       -1.8278157188    0.0890292144   -0.1584874476
C        0.5066590049   -0.4320546771   -0.6601820773
C       -0.4754354545    0.3634923242    0.2149861696
C       -0.2812426991    0.0012483422    1.6975047621
N        0.2305527005    0.7825639411    2.5264191430
C        1.0735951780    0.1651983616   -1.9193074134
C        1.8929186443    0.0914268017   -0.9151509575
H        0.3298573527   -1.5105473852   -0.6016677948
H       -0.2900564490    1.4347096419    0.0939001745
H       -0.5935049171   -1.0125231629    1.9933212041
H        0.8657506744    0.4188790932   -2.9471497608
H        2.8737157975    0.2391740890   -0.4904060565
13   
Iteration 1 Energy -340.92652905
C       -2.9370536749   -0.1668101902   -0.4680094884
N       -1.8283503861    0.0880420505   -0.1572194099
C        0.5057982851   -0.4291013892   -0.6603356821
C       -0.4768433055    0.3642459782    0.2155131497
C       -0.2793083984    0.0035420633    1.6973774243
N        0.2334208390    0.7813995728    2.5286758764
C        1.0754554387    0.1652113126   -1.9183839994
C        1.8926540232    0.0899992432   -0.9151282346
H        0.3263233392   -1.5076772311   -0.6006861299
H       -0.2904358332    1.4354170863    0.0951161984
H       -0.5909996147   -1.0118887215    1.9873566904
H        0.8690448717    0.4191949921   -2.9471045256
H        2.8740684297    0.2355381834   -0.4893716147
13   
Iteration 2 Energy -340.92653198
C       -2.9369377448   -0.1693099046   -0.4670549069
N       -1.8280516393    0.0879524357   -0.1566631717
C        0.5047827170   -0.4314957452   -0.6609654684
C       -0.4767604379    0.3632827927    0.2148654566
C       -0.2773891422    0.0026091404    1.6964416924
N        0.2384798460    0.7853646292    2.5207997549
C        1.0753062642    0.1668828161   -1.9157723422
C        1.8912182745    0.0885075571   -0.9120338861
H        0.3241065347   -1.5103222453   -0.6033985152
H       -0.2886832043    1.4343314026    0.0940743773
H       -0.5887944112   -1.0125520058    1.9883301417
H        0.8695244870    0.4253360518   -2.9436343615
H        2.8717633596    0.2337394768   -0.4838679371
13   
Iteration 3 Energy -340.92653576
C       -2.9367735793   -0.1718711257   -0.4653020694
N       -1.8285270410    0.0878704234   -0.1557419412
C        0.5044690264   -0.4310614991   -0.6617246146
C       -0.4771969783    0.3637363245    0.2146242730
C       -0.2760418759    0.0035200169    1.6965299176
N        0.2397755516    0.7841651093    2.5228813645
C        1.0763630343    0.1670774026   -1.9160281953
C        1.8916826635    0.0875253388   -0.9115857277
H        0.3226042073   -1.5096560661   -0.6045562274
H       -0.2895334775    1.4348057071    0.0933053072
H       -0.5874009193   -1.0119584440    1.9872073649
H        0.8713523265    0.4264479238   -2.9437090479
H        2.8718192409    0.2318383651   -0.4824562353
13   
Iteration 4 Energy -340.92653858
C       -2.9366856638   -0.1786122209   -0.4608855703
N       -1.8296909669    0.0871991439   -0.1531463445
C        0.5033992496   -0.4297374915   -0.6633963952
C       -0.4782402788    0.3643920879    0.2145413633
C       -0.2733941189    0.0040356563    1.6964142698
N        0.2436213233    0.7844161683    2.5221346164
C        1.0793374912    0.1685510288   -1.9158382536
C        1.8928756155    0.0845445513   -0.9100662399
H        0.3180095754   -1.5077386723   -0.6083528454
H       -0.2914980022    1.4355466855    0.0928823196
H       -0.5833771363   -1.0119030214    1.9869606248
H        0.8766118350    0.4312694073   -2.9430352758
H        2.8723752659    0.2254882078   -0.4786218852
13   
Iteration 5 Energy -340.92654041
C       -2.9361257273   -0.1865293569   -0.4556506104
N       -1.8302063585    0.0862222846   -0.1504072668
C        0.5017406707   -0.4306587903   -0.6654961096
C       -0.4783004190    0.3644509419    0.2137216178
C       -0.2691557313    0.0053236728    1.6955441647
N        0.2500454204    0.7850710762    2.5204403960
C        1.0818974034    0.1710061007   -1.9142325430
C        1.8930539503    0.0807835679   -0.9069250553
H        0.3126356983   -1.5082250294   -0.6144614047
H       -0.2919193447    1.4355111183    0.0908662633
H       -0.5785220790   -1.0105627016    1.9867606099
H        0.8817617305    0.4399222701   -2.9403328023
H        2.8714883453    0.2186562895   -0.4721152172
13   
Iteration 6 Energy -340.92654187
C       -2.9360383108   -0.1923542543   -0.4514330672
N       -1.8306644994    0.0849343988   -0.1480426963
C        0.5005946762   -0.4305942471   -0.6670794240
C       -0.4782196866    0.3641900794    0.2136551313
C       -0.2663872298    0.0055482190    1.6950443970
N        0.2545197852    0.7866991214    2.5176040533
C        1.0843909937    0.1735192857   -1.9130510789
C        1.8937790754    0.0776137018   -0.9049543334
H        0.3084033939   -1.5077561486   -0.6199309222
H       -0.2927309247    1.4353218895    0.0903359108
H       -0.5745721177   -1.0101704046    1.9881493891
H        0.8864394404    0.4471951984   -2.9383470187
H        2.8718391742    0.2119755704   -0.4681346297
13   
Iteration 7 Energy -340.92654263
C       -2.9361215835   -0.1958742281   -0.4479054461
N       -1.8306746972    0.0834862566   -0.1461745497
C        0.4998605165   -0.4308290375   -0.6684695890
C       -0.4776043129    0.3635233913    0.2136781329
C       -0.2639791335    0.0056438100    1.6946256784
N        0.2582763149    0.7880275982    2.5152939941
C        1.0863526873    0.1760535252   -1.9119523793
C        1.8944169272    0.0751619801   -0.9034380427
H        0.3054881295   -1.5077499827   -0.6251837024
H       -0.2930665217    1.4347571331    0.0898392077
H       -0.5714054359   -1.0097479704    1.9896717873
H        0.8900646764    0.4537213385   -2.9365357607
H        2.8723438722    0.2064466026   -0.4652761389
13   
Iteration 8 Energy -340.92654289
C       -2.9363242895   -0.1965477706   -0.4460400294
N       -1.8305279062    0.0826202472   -0.1452732819
C        0.4997480325   -0.4308499307   -0.6692545212
C       -0.4771724147    0.3630904826    0.2136903918
C       -0.2626267242    0.0055537002    1.6944407498
N        0.2602317237    0.7882591165    2.5144694628
C        1.0873782036    0.1774656745   -1.9115406102
C        1.8949055355    0.0741777375   -0.9028855754
H        0.3044657017   -1.5076779733   -0.6278538334
H       -0.2932196922    1.4344043540    0.0895831122
H       -0.5698025328   -1.0097166238    1.9901674761
H        0.8918029367    0.4567641073   -2.9358256516
H        2.8728382818    0.2038132110   -0.4642209795
13   
Iteration 9 Energy -340.92654323
C       -2.9368518712   -0.1968391169   -0.4421007090
N       -1.8301179403    0.0809507019   -0.1434552714
C        0.4997217011   -0.4307471332   -0.6710234569
C       -0.4763194139    0.3623061929    0.2135918055
C       -0.2595301541    0.0051095959    1.6939773869
N        0.2647105388    0.7879511742    2.5130302309
C        1.0895746116    0.1802822229   -1.9109511705
C        1.8959851883    0.0725181921   -0.9018994623
H        0.3026570819   -1.5073749589   -0.6330654540
H       -0.2934793583    1.4337834413    0.0890932346
H       -0.5663046256   -1.0100552044    1.9904799463
H        0.8954582734    0.4624063887   -2.9347408600
H        2.8738567089    0.1989020684   -0.4621463832
13   
Iteration 10 Energy -340.92654335
C       -2.9372311984   -0.1963142430   -0.4392414430
N       -1.8297110155    0.0799338875   -0.1421961355
C        0.4998941666   -0.4305718471   -0.6724356785
C       -0.4757155122    0.3618749921    0.2133580383
C       -0.2569326719    0.0045077981    1.6934810568
N        0.2685448624    0.7870444267    2.5120039316
C        1.0912380499    0.1822888880   -1.9107251223
C        1.8968761337    0.0715114976   -0.9013545598
H        0.3015218352   -1.5070312621   -0.6365996777
H       -0.2935262040    1.4334604279    0.0888061539
H       -0.5634881773   -1.0106951795    1.9900725395
H        0.8981659187    0.4662335233   -2.9342025376
H        2.8746541924    0.1956264808   -0.4607684738
13   
Iteration 11 Energy -340.92654335
C       -2.9372910213   -0.1953868720   -0.4378785806
N       -1.8293172426    0.0797329658   -0.1416202258
C        0.5001399974   -0.4303984292   -0.6733618168
C       -0.4752889771    0.3617788095    0.2131073831
C       -0.2552064302    0.0038395513    1.6930459282
N        0.2712243896    0.7858459881    2.5114137286
C        1.0921671182    0.1832444173   -1.9109011467
C        1.8974118364    0.0711908797   -0.9013155286
H        0.3010640680   -1.5067533590   -0.6383359327
H       -0.2932131208    1.4334066203    0.0888261171
H       -0.5617553190   -1.0114562661    1.9893208995
H        0.8996599649    0.4679865867   -2.9342567218
H        2.8750828860    0.1943072233   -0.4602359175
