13   
IRC reactant Energy -340.95660102
C       -1.0231706787    1.9880808561    0.2834826450
N       -1.5220157798    2.9787685687   -0.0570094956
C        0.7341239172    0.3794877402   -0.3899737406
C       -0.3240372345    0.7580685280    0.6813278363
C       -1.2876918652   -0.3926991867    0.9824103039
N       -2.5322413206   -0.3555210404    0.8830644480
C        1.0970091632   -1.0438126901   -0.7072483589
C        0.3890726368   -0.4295816519   -1.6044363769
H        1.4945585987    1.1635466051   -0.4647262497
H        0.2073622274    0.9719500114    1.6213822159
H       -0.7954975491   -1.3190467480    1.3187886112
H        1.6293653773   -1.9245920418   -0.3794359518
H       -0.1038372443   -0.4186053326   -2.5647635183
