13   
Iteration 0 Energy -340.95660102
C       -1.0231706787    1.9880808561    0.2834826450
N       -1.5220157798    2.9787685687   -0.0570094956
C        0.7341239172    0.3794877402   -0.3899737406
C       -0.3240372345    0.7580685280    0.6813278363
C       -1.2876918652   -0.3926991867    0.9824103039
N       -2.5322413206   -0.3555210404    0.8830644480
C        1.0970091632   -1.0438126901   -0.7072483589
C        0.3890726368   -0.4295816519   -1.6044363769
H        1.4945585987    1.1635466051   -0.4647262497
H        0.2073622274    0.9719500114    1.6213822159
H       -0.7954975491   -1.3190467480    1.3187886112
H        1.6293653773   -1.9245920418   -0.3794359518
H       -0.1038372443   -0.4186053326   -2.5647635183
13   
Iteration 1 Energy -340.95660101
C       -1.0229000627    1.9886335111    0.2825132304
N       -1.5215896611    2.9793409268   -0.0581587729
C        0.7343321180    0.3798197025   -0.3905722127
C       -0.3239456257    0.7585804184    0.6805632699
C       -1.2877430330   -0.3920628913    0.9816501226
N       -2.5322580130   -0.3544954477    0.8820640624
C        1.0971720130   -1.0435253645   -0.7077007857
C        0.3894048868   -0.4293091130   -1.6050307242
H        1.4948344831    1.1638171670   -0.4652772784
H        0.2073551997    0.9725120272    1.6206617647
H       -0.7957873865   -1.3184810548    1.3181821453
H        1.6294272586   -1.9243154557   -0.3797535352
H       -0.1033633103   -0.4183633760   -2.5654312222
