13   
Iteration 31 Energy -340.97170846
C       -1.4037811287   -1.5231531812   -0.0289760135
N       -2.0754634303   -1.6299886272   -0.9828655971
C        0.3106279441    1.3083059534   -0.1689325373
C        0.1781765080    0.7915535577    1.0827879643
C       -0.0292221275   -0.5600643471    1.5697340980
N       -0.6888356240   -1.5688884192    1.0892080006
C        0.7654863859   -0.5562128851   -1.7887398419
C        0.4456831472    0.6928167659   -1.4886776465
H        0.3968737032    2.3943775202   -0.2020425187
H        0.2944622544    1.5053606585    1.8979864702
H        0.4030448279   -0.7533721876    2.5545056127
H        1.0190568783   -1.4871499840   -1.3021490036
H        0.3186491172    1.3919079083   -2.3187372787
