13   
Iteration 0 Energy -340.97170846
C       -1.4037811287   -1.5231531812   -0.0289760135
N       -2.0754634303   -1.6299886272   -0.9828655971
C        0.3106279441    1.3083059534   -0.1689325373
C        0.1781765080    0.7915535577    1.0827879643
C       -0.0292221275   -0.5600643471    1.5697340980
N       -0.6888356240   -1.5688884192    1.0892080006
C        0.7654863859   -0.5562128851   -1.7887398419
C        0.4456831472    0.6928167659   -1.4886776465
H        0.3968737032    2.3943775202   -0.2020425187
H        0.2944622544    1.5053606585    1.8979864702
H        0.4030448279   -0.7533721876    2.5545056127
H        1.0190568783   -1.4871499840   -1.3021490036
H        0.3186491172    1.3919079083   -2.3187372787
13   
Iteration 1 Energy -340.97170849
C       -1.4041835103   -1.5224547946   -0.0286500494
N       -2.0760783252   -1.6291072791   -0.9824075172
C        0.3107938833    1.3086618309   -0.1686897125
C        0.1783646744    0.7919201925    1.0830261933
C       -0.0291580155   -0.5597165536    1.5698458450
N       -0.6889918991   -1.5684095124    1.0893601780
C        0.7658207633   -0.5560605453   -1.7881680517
C        0.4458467181    0.6929792734   -1.4883457744
H        0.3970721882    2.3947269477   -0.2018914307
H        0.2947198513    1.5057039520    1.8982381505
H        0.4032303489   -0.7532003513    2.5545308271
H        1.0195507876   -1.4868692216   -1.3013921495
H        0.3186840214    1.3919081910   -2.3185263595
