13   
Iteration 0 Energy -340.91811019
C       -1.7981386075    2.2553704881   -0.2074879506
N       -1.0856151175    1.4445169181    0.2677115131
C        0.9835714473    0.1930114916   -0.1738202880
C       -0.1995389719    0.4574787601    0.7939534842
C       -0.9772306157   -0.8356871886    1.1506895762
N       -1.9774501572   -0.8926333712    1.8912816545
C        1.0207936675   -1.0182407553   -1.0672669146
C        0.7559482166    0.1059613540   -1.6533344871
H        1.9231682593    0.6166344938    0.1918786381
H        0.2006932528    0.8480529080    1.7369977410
H       -0.5682509724   -1.7689900014    0.7305183373
H        1.1879460415   -2.0835208996   -1.1194497573
H        0.5345946306    0.6775061170   -2.5410625402
13   
Iteration 1 Energy -340.91818591
C       -1.7900342208    2.2489056086   -0.2134333982
N       -1.0818209011    1.4382999022    0.2677370073
C        0.9831052796    0.1912787120   -0.1739297973
C       -0.1981938770    0.4510282794    0.7950794501
C       -0.9795308946   -0.8377032699    1.1552133999
N       -1.9859046133   -0.8755772189    1.8903519893
C        1.0264264326   -1.0167051282   -1.0731122097
C        0.7522858581    0.1083338689   -1.6536156178
H        1.9192503262    0.6194603162    0.1952889664
H        0.2042088716    0.8415257242    1.7371669851
H       -0.5705291260   -1.7743610831    0.7450125456
H        1.2004217394   -2.0809516206   -1.1299064622
H        0.5246447723    0.6828629141   -2.5381664743
13   
Iteration 2 Energy -340.91823383
C       -1.7735215892    2.2540039853   -0.2110461667
N       -1.0737724579    1.4406015861    0.2776529025
C        0.9834766578    0.1900953400   -0.1717802949
C       -0.1943434662    0.4477904507    0.8016765712
C       -0.9814977384   -0.8376490104    1.1589620017
N       -1.9979306828   -0.8676463789    1.8806793515
C        1.0339094106   -1.0173153580   -1.0711119035
C        0.7401013100    0.1043478665   -1.6490556447
H        1.9155870965    0.6301876659    0.1939091062
H        0.2118558664    0.8350978614    1.7434891752
H       -0.5693283072   -1.7748446757    0.7539402125
H        1.2223707436   -2.0791319552   -1.1290962025
H        0.4959016419    0.6768365804   -2.5305983769
13   
Iteration 3 Energy -340.91827987
C       -1.7619923182    2.2706440005   -0.1883425357
N       -1.0670925502    1.4485391351    0.2926687089
C        0.9826741718    0.1931468828   -0.1718583480
C       -0.1925693846    0.4454962256    0.8058453665
C       -0.9859738577   -0.8392747740    1.1500484670
N       -2.0045223248   -0.8710892729    1.8686644029
C        1.0456184133   -1.0208124738   -1.0614549627
C        0.7310258973    0.0914902508   -1.6466554080
H        1.9100056540    0.6510789329    0.1840540691
H        0.2163880926    0.8216271323    1.7510306903
H       -0.5777100230   -1.7743079328    0.7361186253
H        1.2533890529   -2.0794136756   -1.1121470059
H        0.4713360233    0.6526157071   -2.5310928001
13   
Iteration 4 Energy -340.91835462
C       -1.7489312509    2.2930885336   -0.1556039887
N       -1.0590559462    1.4583998513    0.3107351160
C        0.9811020328    0.1979901758   -0.1748282339
C       -0.1909229466    0.4417007811    0.8081768994
C       -0.9917554503   -0.8428562820    1.1337178391
N       -2.0113637565   -0.8791089849    1.8505923147
C        1.0629827233   -1.0261585088   -1.0488112245
C        0.7212542178    0.0717002770   -1.6461968736
H        1.9012324160    0.6801881354    0.1675856992
H        0.2212547272    0.8015147268    1.7583748649
H       -0.5884670621   -1.7743438278    0.7069802424
H        1.2958791401   -2.0800396490   -1.0876108375
H        0.4435712118    0.6150827661   -2.5362645337
13   
Iteration 5 Energy -340.91844822
C       -1.7354277919    2.3162088602   -0.1253268993
N       -1.0514359513    1.4683466115    0.3256444620
C        0.9786302109    0.2025340881   -0.1807730429
C       -0.1905591444    0.4374971874    0.8069022719
C       -0.9995813475   -0.8463407103    1.1123866387
N       -2.0190414575   -0.8872706339    1.8291790839
C        1.0818337594   -1.0322744312   -1.0372660784
C        0.7125840416    0.0491822059   -1.6483449025
H        1.8902299379    0.7098635001    0.1480234769
H        0.2244923739    0.7800008026    1.7623033057
H       -0.6030222162   -1.7735906452    0.6702409542
H        1.3403612756   -2.0805945863   -1.0625433807
H        0.4181730638    0.5728060735   -2.5448904097
13   
Iteration 6 Energy -340.91855473
C       -1.7214470586    2.3398998973   -0.0998918210
N       -1.0443186691    1.4791572696    0.3368089526
C        0.9753772311    0.2069588243   -0.1881113382
C       -0.1917543226    0.4342431311    0.8029534749
C       -1.0101235499   -0.8478929398    1.0880715952
N       -2.0272344773   -0.8931114041    1.8078896629
C        1.1005970474   -1.0381000014   -1.0265280436
C        0.7058439022    0.0262723715   -1.6518314269
H        1.8777664777    0.7383531267    0.1280205985
H        0.2254380236    0.7594874138    1.7634865765
H       -0.6234611016   -1.7702320644    0.6271359375
H        1.3835304783   -2.0803669976   -1.0377109374
H        0.3972263883    0.5296119409   -2.5552246161
13   
Iteration 7 Energy -340.91867194
C       -1.7074813293    2.3650417621   -0.0754581855
N       -1.0378226260    1.4916679305    0.3474728544
C        0.9710047685    0.2123507845   -0.1951383652
C       -0.1942973723    0.4327270894    0.7988125934
C       -1.0228164854   -0.8467871132    1.0638906181
N       -2.0371305379   -0.8956246741    1.7873846169
C        1.1184817201   -1.0423682028   -1.0151923443
C        0.6997384418    0.0043650489   -1.6548436051
H        1.8637198362    0.7668708224    0.1087327464
H        0.2248805346    0.7406828510    1.7642098631
H       -0.6470932334   -1.7639628834    0.5838574704
H        1.4248047042   -2.0780793263   -1.0120555749
H        0.3786640733    0.4870950357   -2.5651544166
13   
Iteration 8 Energy -340.91879620
C       -1.6942462709    2.3911989220   -0.0477983849
N       -1.0320647081    1.5053685043    0.3607602780
C        0.9652873972    0.2191094750   -0.2011652345
C       -0.1974805022    0.4326373151    0.7963985420
C       -1.0358454632   -0.8438383185    1.0425913842
N       -2.0491282416   -0.8956105439    1.7673352597
C        1.1350477733   -1.0446729049   -1.0025756851
C        0.6925575079   -0.0164303154   -1.6563895606
H        1.8478869272    0.7964223230    0.0898047240
H        0.2244187493    0.7232410617    1.7660525115
H       -0.6688755894   -1.7563166058    0.5469741434
H        1.4643039538   -2.0731961436   -0.9851366888
H        0.3594268586    0.4451255139   -2.5733655263
13   
Iteration 9 Energy -340.91892405
C       -1.6819029141    2.4167699962   -0.0157421476
N       -1.0268128790    1.5187994939    0.3774563038
C        0.9586215948    0.2264501211   -0.2061765814
C       -0.2006099825    0.4327566138    0.7961306693
C       -1.0480080237   -0.8406264713    1.0246701453
N       -2.0616228442   -0.8950487093    1.7487792707
C        1.1506504282   -1.0456516894   -0.9888899145
C        0.6842009858   -0.0367543688   -1.6563436866
H        1.8306182209    0.8263548306    0.0710408709
H        0.2249908080    0.7059737103    1.7693182035
H       -0.6876709080   -1.7488260099    0.5164158396
H        1.5026027008   -2.0663094276   -0.9574921689
H        0.3389030955    0.4031193313   -2.5794930368
13   
Iteration 10 Energy -340.91905522
C       -1.6696423070    2.4406435231    0.0202035407
N       -1.0213557438    1.5308224098    0.3970928307
C        0.9516733328    0.2331936442   -0.2103530584
C       -0.2031992934    0.4318114998    0.7976370126
C       -1.0592279631   -0.8383524381    1.0090998794
N       -2.0725090296   -0.8957514131    1.7334698392
C        1.1661739500   -1.0463692033   -0.9744889198
C        0.6755517923   -0.0575960571   -1.6549215225
H        1.8124823956    0.8554596075    0.0525040823
H        0.2268703148    0.6873649751    1.7737628151
H       -0.7058521702   -1.7418920552    0.4877820031
H        1.5407333911   -2.0584525307   -0.9295949285
H        0.3180268702    0.3601961533   -2.5836939801
13   
Iteration 11 Energy -340.91918894
C       -1.6569670550    2.4622658331    0.0597542547
N       -1.0151983717    1.5409057631    0.4193649663
C        0.9451480175    0.2392953791   -0.2140040340
C       -0.2046215422    0.4293691653    0.8005866198
C       -1.0688336695   -0.8375851882    0.9952230081
N       -2.0799308704   -0.8989536257    1.7223369043
C        1.1828850661   -1.0467213785   -0.9597750681
C        0.6674288951   -0.0790659206   -1.6524440135
H        1.7939136154    0.8839826143    0.0339301582
H        0.2305509962    0.6669280447    1.7790922152
H       -0.7239349250   -1.7354116767    0.4585787555
H        1.5804212606   -2.0493475448   -0.9018915996
H        0.2974165420    0.3161325193   -2.5862360636
13   
Iteration 12 Energy -340.91932167
C       -1.6446842732    2.4814931757    0.1019387204
N       -1.0088313470    1.5491745493    0.4433469741
C        0.9391779854    0.2458097570   -0.2179096412
C       -0.2048319233    0.4259989635    0.8041486326
C       -1.0762895475   -0.8381201602    0.9822449521
N       -2.0828924042   -0.9050565703    1.7151025610
C        1.2015344806   -1.0454770820   -0.9455662641
C        0.6602390337   -0.1002505927   -1.6497286614
H        1.7746974668    0.9132950740    0.0146019348
H        0.2359520726    0.6455179428    1.7844394433
H       -0.7415478884   -1.7287452757    0.4275134776
H        1.6228026397   -2.0375671701   -0.8752048060
H        0.2773868277    0.2716623906   -2.5879321139
13   
Iteration 13 Energy -340.91944772
C       -1.6334559785    2.4989089021    0.1443054148
N       -1.0029259776    1.5563764706    0.4670225714
C        0.9332778216    0.2531196074   -0.2230604780
C       -0.2046880420    0.4224902084    0.8068196024
C       -1.0827528014   -0.8390032973    0.9686493479
N       -2.0827413369   -0.9128856234    1.7098729375
C        1.2210669592   -1.0421907530   -0.9331505718
C        0.6541450363   -0.1201232246   -1.6480493217
H        1.7546260355    0.9431027371   -0.0058248631
H        0.2419041253    0.6240720723    1.7884026846
H       -0.7599146245   -1.7209577946    0.3934765055
H        1.6659583175   -2.0229946111   -0.8509041189
H        0.2589289440    0.2283760261   -2.5901411086
13   
Iteration 14 Energy -340.91956413
C       -1.6222707353    2.5157679980    0.1844980780
N       -0.9972953210    1.5633665457    0.4884933337
C        0.9269535470    0.2602250705   -0.2300164302
C       -0.2052371754    0.4189946822    0.8072485344
C       -1.0905541985   -0.8392428397    0.9526804759
N       -2.0832319689   -0.9201752497    1.7029828713
C        1.2398873325   -1.0381380547   -0.9231133482
C        0.6492383344   -0.1390679484   -1.6482754506
H        1.7338946278    0.9714070454   -0.0271996097
H        0.2469280994    0.6023873184    1.7899060998
H       -0.7808957163   -1.7117258714    0.3563415108
H        1.7069933964   -2.0075191218   -0.8293775592
H        0.2432036593    0.1865775475   -2.5939747955
13   
Iteration 15 Energy -340.91967426
C       -1.6093517083    2.5336277645    0.2225792138
N       -0.9914054854    1.5707992066    0.5074805632
C        0.9196873468    0.2662850874   -0.2389229838
C       -0.2073249311    0.4151599797    0.8048577447
C       -1.1017920948   -0.8383444373    0.9327586441
N       -2.0883973714   -0.9252204924    1.6904473276
C        1.2583189318   -1.0346522842   -0.9142856680
C        0.6455045240   -0.1593242725   -1.6502983957
H        1.7116830595    0.9979520648   -0.0500591684
H        0.2499133722    0.5791489179    1.7886644780
H       -0.8056232391   -1.7012378501    0.3161300456
H        1.7467103990   -1.9922213439   -0.8083978395
H        0.2302929344    0.1429967121   -2.5997925569
13   
Iteration 16 Energy -340.91977620
C       -1.5951515564    2.5520928867    0.2579821033
N       -0.9859587770    1.5783059069    0.5238184849
C        0.9111638721    0.2711634087   -0.2491551807
C       -0.2116368854    0.4108263114    0.7999180564
C       -1.1168386410   -0.8365611930    0.9091905347
N       -2.1001826728   -0.9276649050    1.6707267595
C        1.2772603212   -1.0320322206   -0.9048516603
C        0.6431696603   -0.1823940745   -1.6531314213
H        1.6870972351    1.0233552627   -0.0742400898
H        0.2498008594    0.5544781405    1.7850328201
H       -0.8326687166   -1.6905461676    0.2749554436
H        1.7868050323   -1.9768856959   -0.7852992578
H        0.2203706335    0.0950161642   -2.6069174458
13   
Iteration 17 Energy -340.91985549
C       -1.5840544195    2.5673482670    0.2880361743
N       -0.9830840338    1.5841132895    0.5372453459
C        0.9019798222    0.2751194139   -0.2584875747
C       -0.2176960902    0.4065183256    0.7946253748
C       -1.1324161984   -0.8351255214    0.8871219270
N       -2.1154147080   -0.9289597782    1.6488932772
C        1.2944232752   -1.0295570121   -0.8949911451
C        0.6415078271   -0.2049312812   -1.6551953840
H        1.6623200200    1.0459761081   -0.0963650922
H        0.2468963127    0.5320561970    1.7808321028
H       -0.8563792730   -1.6820978479    0.2401906057
H        1.8232125103   -1.9619725140   -0.7621110652
H        0.2129096107    0.0486603425   -2.6130533648
13   
Iteration 18 Energy -340.91992048
C       -1.5761938470    2.5800538116    0.3176839754
N       -0.9833839803    1.5879233341    0.5505956948
C        0.8900768859    0.2776938033   -0.2674223073
C       -0.2268356855    0.4007774788    0.7893570539
C       -1.1507630484   -0.8350244253    0.8650852796
N       -2.1347614041   -0.9311988407    1.6253842613
C        1.3095069467   -1.0277750804   -0.8840225619
C        0.6384646636   -0.2292256389   -1.6563787587
H        1.6341419848    1.0669049977   -0.1181924736
H        0.2405470699    0.5082827204    1.7764817643
H       -0.8812246817   -1.6754310091    0.2071018918
H        1.8572970628   -1.9470677863   -0.7373877936
H        0.2050352573   -0.0000550887   -2.6182455598
13   
Iteration 19 Energy -340.91997090
C       -1.5712333756    2.5887398449    0.3483245155
N       -0.9873596684    1.5877116521    0.5651204128
C        0.8737531415    0.2750525287   -0.2747534514
C       -0.2407373592    0.3907909336    0.7852594293
C       -1.1748974029   -0.8381037329    0.8438812582
N       -2.1602435486   -0.9359134694    1.6023248344
C        1.3197205512   -1.0309617266   -0.8704557429
C        0.6320951249   -0.2590728160   -1.6554120340
H        1.6015607272    1.0816615824   -0.1385768355
H        0.2290772037    0.4797153236    1.7731775367
H       -0.9122357403   -1.6718798621    0.1749184897
H        1.8854603960   -1.9368742819   -0.7093932684
H        0.1951522418   -0.0546627578   -2.6212983523
13   
Iteration 20 Energy -340.92000369
C       -1.5705781496    2.5885275253    0.3785102118
N       -0.9960887545    1.5792305762    0.5815408511
C        0.8532203411    0.2621933301   -0.2760048135
C       -0.2600330382    0.3730703849    0.7858147131
C       -1.2048910106   -0.8481956573    0.8286013934
N       -2.1922981907   -0.9460776338    1.5844404767
C        1.3244386257   -1.0448134563   -0.8489060420
C        0.6229222385   -0.2998969319   -1.6476621963
H        1.5655470990    1.0846228926   -0.1529784378
H        0.2110382952    0.4449784035    1.7746055788
H       -0.9487052846   -1.6763213471    0.1503013679
H        1.9061909104   -1.9375295614   -0.6719652024
H        0.1844167156   -0.1205878021   -2.6178513717
13   
Iteration 21 Energy -340.92002035
C       -1.6040691134    2.5419370562    0.4076362716
N       -1.0361368036    1.5284902908    0.6083559753
C        0.8164842615    0.2113264970   -0.2410385164
C       -0.3067753132    0.3180668640    0.8107627733
C       -1.2566424235   -0.8997356766    0.8350980071
N       -2.2534380426   -0.9980514624    1.5785403607
C        1.3282821323   -1.0969784226   -0.7739424432
C        0.6165622171   -0.3923985806   -1.5999350156
H        1.5056773727    1.0551529250   -0.1318035167
H        0.1551983936    0.3808057946    1.8045472347
H       -0.9957772377   -1.7248369044    0.1550161961
H        1.9300454252   -1.9697842997   -0.5671035312
H        0.1860229137   -0.2504165688   -2.5798616959
13   
Iteration 22 Energy -340.92001809
C       -2.2000535815    2.0097805964    0.4672922159
N       -1.5170219261    1.0883880154    0.7400063195
C        0.6380753140    0.1215174428    0.1795755908
C       -0.6417144877   -0.0003673225    1.0331596782
C       -1.3714370595   -1.3520048408    0.8724421889
N       -2.4491546691   -1.6397785253    1.4307498743
C        1.4578462925   -1.0625683515   -0.2481046138
C        0.7780791996   -0.4797222052   -1.1880410562
H        1.1361140647    1.0724660438    0.3950922957
H       -0.3607102879    0.0857697838    2.0908628332
H       -0.8699228794   -2.0944227845    0.2331399104
H        2.1633422653   -1.8185479234    0.0640822913
H        0.4975613372   -0.3966272532   -2.2273841663
13   
Iteration 23 Energy -340.92002110
C       -1.7971841326    2.3566501230    0.4305615215
N       -1.1976593113    1.3670303534    0.6566505611
C        0.7448079823    0.1295988729   -0.1090909738
C       -0.4284227688    0.1875801907    0.8911064855
C       -1.3269798810   -1.0686046776    0.8718747433
N       -2.3534631002   -1.2087692277    1.5666184146
C        1.3483496019   -1.1562143672   -0.5987199454
C        0.6398564479   -0.5005804175   -1.4667182677
H        1.3831303493    1.0098919385    0.0194122738
H       -0.0146083071    0.2670644995    1.9047484583
H       -0.9996657579   -1.8818911472    0.2064453394
H        1.9841505471   -1.9937589749   -0.3518069724
H        0.2486950658   -0.3935980213   -2.4673960605
13   
Iteration 24 Energy -340.92002124
C       -1.9242869282    2.3034456385    0.4178951097
N       -1.2922010965    1.3320160152    0.6339608460
C        0.6688307902    0.1458354103   -0.1643567219
C       -0.4859852442    0.1754178967    0.8580760979
C       -1.3493644987   -1.1053688691    0.8613923491
N       -2.3572438990   -1.2711639969    1.5774101428
C        1.2949707347   -1.1246102912   -0.6656662415
C        0.5532805106   -0.4875013162   -1.5196210409
H        1.2871976064    1.0420135990   -0.0485518269
H       -0.0550866316    0.2710084739    1.8631621476
H       -1.0130912948   -1.9118564162    0.1921791299
H        1.9566155702   -1.9455239659   -0.4310984220
H        0.1402069998   -0.3909596810   -2.5125219704
13   
Iteration 25 Energy -340.92002116
C       -2.1118542111    2.1954533065    0.4997504389
N       -1.4316787966    1.2507002324    0.6860263288
C        0.5970020087    0.2050003013   -0.1389059079
C       -0.5663667357    0.1305369305    0.8714350911
C       -1.3596401907   -1.1935241795    0.8132945211
N       -2.3632071305   -1.4422443268    1.5111459177
C        1.2940557793   -1.0080646364   -0.6865839452
C        0.5265643035   -0.3752590040   -1.5207332387
H        1.1656900911    1.1269599280    0.0208866235
H       -0.1497191117    0.2073834333    1.8841045282
H       -0.9748629537   -1.9527177024    0.1155008103
H        1.9965970164   -1.8020515936   -0.4798979362
H        0.1169645796   -0.2585493320   -2.5129054312
13   
Iteration 26 Energy -340.92002122
C       -2.2254617073    2.1101385387    0.5377313739
N       -1.5099925311    1.1880641926    0.7044134766
C        0.5583049914    0.2364960524   -0.1356222737
C       -0.6039579106    0.0972376394    0.8690566150
C       -1.3471964117   -1.2539397150    0.7803724869
N       -2.3419710185   -1.5547421780    1.4702523005
C        1.3006975921   -0.9378697961   -0.7075713963
C        0.5123122916   -0.3155187057   -1.5300097397
H        1.0924327836    1.1749401385    0.0459881062
H       -0.1931509184    0.1679803828    1.8845522825
H       -0.9331424292   -1.9829913244    0.0673612901
H        2.0315313099   -1.7098431343   -0.5161801672
H        0.1010646573   -0.1921075861   -2.5206870744
