13   
IRC product Energy -340.97461363
C       -1.4448207705   -1.4231384303   -0.0750679472
N       -2.0347222985   -1.5266451901   -1.0840969425
C        0.3714044857    1.3574000427   -0.0426645614
C        0.0435400493    0.8789553845    1.1923951047
C       -0.2708767608   -0.4511098092    1.6700718202
N       -0.8698095025   -1.4633659218    1.1190469486
C        0.6182052445   -0.6051966172   -1.5651449350
C        0.6137852175    0.6979084323   -1.3123235987
H        0.5522612033    2.4307594851   -0.0742854409
H        0.1031906475    1.6036791056    2.0036139921
H        0.0151531537   -0.6313697169    2.7091281173
H        0.7785074059   -1.2374648021   -2.4298677211
H        0.8512416388    1.3782474080   -2.1394879524
