13   
Iteration 0 Energy -340.97461363
C       -1.4448207705   -1.4231384303   -0.0750679472
N       -2.0347222985   -1.5266451901   -1.0840969425
C        0.3714044857    1.3574000427   -0.0426645614
C        0.0435400493    0.8789553845    1.1923951047
C       -0.2708767608   -0.4511098092    1.6700718202
N       -0.8698095025   -1.4633659218    1.1190469486
C        0.6182052445   -0.6051966172   -1.5651449350
C        0.6137852175    0.6979084323   -1.3123235987
H        0.5522612033    2.4307594851   -0.0742854409
H        0.1031906475    1.6036791056    2.0036139921
H        0.0151531537   -0.6313697169    2.7091281173
H        0.7785074059   -1.2374648021   -2.4298677211
H        0.8512416388    1.3782474080   -2.1394879524
13   
Iteration 1 Energy -340.97425362
C       -1.3794120307   -1.4189812502   -0.1080139851
N       -1.9208147101   -1.5274346080   -1.1436454327
C        0.3768329993    1.3580830645   -0.0339867642
C        0.0459989403    0.8869303033    1.2030565786
C       -0.2767828934   -0.4417182963    1.6785162657
N       -0.8593369346   -1.4542354654    1.1109010880
C        0.5484982013   -0.6122672501   -1.5513197953
C        0.5917170920    0.6913161998   -1.3056088401
H        0.5790877392    2.4276621678   -0.0687292507
H        0.1083032496    1.6123244392    2.0133731737
H       -0.0120740032   -0.6213347926    2.7233727335
H        0.6798249683   -1.2514189565   -2.4133627013
H        0.8426896032    1.3621954436   -2.1361418671
13   
Iteration 2 Energy -340.97453128
C       -1.4089906330   -1.4158227083   -0.0957967775
N       -1.9743947208   -1.5180548954   -1.1191573639
C        0.3721926777    1.3579295956   -0.0379543096
C        0.0445944700    0.8834720331    1.1986882908
C       -0.2714136103   -0.4470512660    1.6734894198
N       -0.8612118719   -1.4580763672    1.1107082351
C        0.5819357350   -0.6114414108   -1.5524728591
C        0.6005209780    0.6929918268   -1.3081424607
H        0.5621604408    2.4297534338   -0.0725785380
H        0.1049527163    1.6081600504    2.0097901170
H        0.0047982834   -0.6291605702    2.7149274894
H        0.7272902852   -1.2493055321   -2.4133758824
H        0.8429177076    1.3669279471   -2.1387711890
13   
Iteration 3 Energy -340.97460786
C       -1.4285501338   -1.4164403042   -0.0860362343
N       -2.0086017985   -1.5166885835   -1.1013471373
C        0.3702419935    1.3576810961   -0.0405900886
C        0.0437912055    0.8810270538    1.1955143647
C       -0.2693220633   -0.4500535238    1.6707591062
N       -0.8640495313   -1.4608159558    1.1126902684
C        0.6030781965   -0.6095136743   -1.5560545989
C        0.6069626899    0.6947743784   -1.3101789778
H        0.5535483447    2.4306666504   -0.0744108653
H        0.1033020428    1.6054432703    2.0069383803
H        0.0134609812   -0.6325901655    2.7103481712
H        0.7572702773   -1.2453700890   -2.4173090042
H        0.8451004618    1.3713447131   -2.1399572991
13   
Iteration 4 Energy -340.97462687
C       -1.4327965240   -1.4219356227   -0.0809078030
N       -2.0130058281   -1.5263383209   -1.0958469103
C        0.3723837751    1.3569894841   -0.0412862636
C        0.0439497512    0.8801260173    1.1943815752
C       -0.2720598047   -0.4494894770    1.6719135533
N       -0.8680567937   -1.4618005093    1.1177418213
C        0.6051046934   -0.6065334063   -1.5623532838
C        0.6099106013    0.6969820619   -1.3122848200
H        0.5570940969    2.4298019657   -0.0733159693
H        0.1040736751    1.6049753943    2.0053545910
H        0.0101142843   -0.6295034647    2.7120996395
H        0.7597549383   -1.2395622602   -2.4254334706
H        0.8497045327    1.3757182933   -2.1397689467
13   
Iteration 5 Energy -340.97463654
C       -1.4310847517   -1.4312963121   -0.0777937434
N       -2.0064733059   -1.5436625986   -1.0947824159
C        0.3770365284    1.3574385008   -0.0411638471
C        0.0447672889    0.8800093161    1.1934139764
C       -0.2773332099   -0.4470115695    1.6735490494
N       -0.8716090713   -1.4626813308    1.1232743875
C        0.5981835613   -0.6030472381   -1.5699723162
C        0.6116791050    0.6993817271   -1.3137499986
H        0.5669976571    2.4294952079   -0.0709165238
H        0.1064707665    1.6049908898    2.0040825858
H       -0.0005268200   -0.6222462870    2.7159789301
H        0.7496327272   -1.2319068981   -2.4361382946
H        0.8565081399    1.3802499156   -2.1377673493
13   
Iteration 6 Energy -340.97464023
C       -1.4311778111   -1.4329300000   -0.0765021183
N       -2.0090396037   -1.5461047649   -1.0922077037
C        0.3775076176    1.3545316591   -0.0420261351
C        0.0449541945    0.8787888838    1.1934655430
C       -0.2791927151   -0.4466375744    1.6756108194
N       -0.8700465935   -1.4636252186    1.1235008872
C        0.5989180740   -0.6021973257   -1.5739768937
C        0.6122228819    0.7001487146   -1.3162605871
H        0.5671414443    2.4266487081   -0.0712270101
H        0.1088498988    1.6044586651    2.0033399439
H       -0.0080801017   -0.6189858741    2.7200163820
H        0.7512158617   -1.2288436746   -2.4415126137
H        0.8575592409    1.3831151155   -2.1383541079
13   
Iteration 7 Energy -340.97464305
C       -1.4280069863   -1.4345106033   -0.0795794648
N       -2.0051649073   -1.5487652538   -1.0955913910
C        0.3776257362    1.3562040625   -0.0415629703
C        0.0455577066    0.8799034595    1.1940172084
C       -0.2806388438   -0.4455097368    1.6742333915
N       -0.8688323445   -1.4636700001    1.1212180032
C        0.5951368089   -0.6027999171   -1.5723419023
C        0.6100737310    0.6997087256   -1.3147963918
H        0.5689489506    2.4280039205   -0.0711170354
H        0.1122727823    1.6045603132    2.0045797740
H       -0.0120999447   -0.6180311488    2.7192332772
H        0.7467624944   -1.2298731095   -2.4402490716
H        0.8562822144    1.3815765908   -2.1375868054
13   
Iteration 8 Energy -340.97464240
C       -1.4210787838   -1.4348215588   -0.0820783257
N       -1.9920177835   -1.5498248393   -1.1015949740
C        0.3773396114    1.3546320006   -0.0417230186
C        0.0460942587    0.8785222495    1.1944156744
C       -0.2838593656   -0.4445567306    1.6773385073
N       -0.8704829671   -1.4626903375    1.1224739119
C        0.5892511572   -0.6033215771   -1.5741715403
C        0.6066656567    0.6990670294   -1.3157562643
H        0.5715237279    2.4259495700   -0.0705281432
H        0.1163012273    1.6037105421    2.0041260276
H       -0.0197349736   -0.6156141465    2.7237065094
H        0.7395904248   -1.2295361912   -2.4428152226
H        0.8535432550    1.3808230676   -2.1384597124
13   
Iteration 9 Energy -340.97464445
C       -1.4243290903   -1.4355458244   -0.0820833832
N       -1.9984542213   -1.5504076521   -1.0998832473
C        0.3772583632    1.3554677310   -0.0420640921
C        0.0464470450    0.8787504929    1.1940214321
C       -0.2832047578   -0.4450427849    1.6749440472
N       -0.8704035992   -1.4633997231    1.1208532329
C        0.5923545666   -0.6031740101   -1.5721122149
C        0.6073082569    0.6997171701   -1.3157729234
H        0.5705785701    2.4269559571   -0.0708389464
H        0.1164619140    1.6032706164    2.0043576502
H       -0.0184798689   -0.6167034242    2.7210352730
H        0.7436281502   -1.2302584528   -2.4398127951
H        0.8525561193    1.3810784143   -2.1392659567
13   
Iteration 10 Energy -340.97464456
C       -1.4252798050   -1.4351319652   -0.0816666744
N       -1.9998874560   -1.5495400158   -1.0992447336
C        0.3768906594    1.3543378339   -0.0422191640
C        0.0463868228    0.8783751512    1.1942789743
C       -0.2835553319   -0.4451788160    1.6755252588
N       -0.8712142623   -1.4632228041    1.1211822987
C        0.5947762843   -0.6041930801   -1.5742301401
C        0.6070844054    0.6983656290   -1.3157140156
H        0.5698451034    2.4258797531   -0.0713826490
H        0.1163182028    1.6033195706    2.0042613548
H       -0.0195452921   -0.6166274181    2.7218266745
H        0.7469168931   -1.2297835191   -2.4430795599
H        0.8504021541    1.3805914908   -2.1390344107
