13   
Iteration 268 Energy -340.94997205
C       -2.1934771490    1.3316417989   -0.8726885182
N       -1.3481727795    0.9591718276   -0.1433533243
C        0.9122946814   -0.0295428553   -0.1054983232
C       -0.3067473513    0.4832162984    0.7008163538
C       -0.8467265071   -0.6474915696    1.5928331080
N       -0.6142499312   -0.7177563016    2.8178090037
C        0.7827232121   -0.7171433555   -1.4336845040
C        1.2472975407    0.4947368292   -1.4712047016
H        1.7096965994   -0.3171229342    0.5861165490
H        0.0155843070    1.3046312492    1.3492330985
H       -1.4290599751   -1.4290930327    1.0810078689
H        0.4996959001   -1.6225199748   -1.9477088441
H        1.6273343222    1.3343421989   -2.0318304272
