13   
Iteration 0 Energy -340.92651239
C       -2.1934771490    1.3316417989   -0.8726885182
N       -1.3481727795    0.9591718276   -0.1433533243
C        0.9122946814   -0.0295428553   -0.1054983232
C       -0.3067473513    0.4832162984    0.7008163538
C       -0.8467265071   -0.6474915696    1.5928331080
N       -0.6142499312   -0.7177563016    2.8178090037
C        0.7827232121   -0.7171433555   -1.4336845040
C        1.2472975407    0.4947368292   -1.4712047016
H        1.7096965994   -0.3171229342    0.5861165490
H        0.0155843070    1.3046312492    1.3492330985
H       -1.4290599751   -1.4290930327    1.0810078689
H        0.4996959001   -1.6225199748   -1.9477088441
H        1.6273343222    1.3343421989   -2.0318304272
13   
Iteration 1 Energy -340.92654166
C       -2.1842968819    1.3262339117   -0.8854730541
N       -1.3417136510    0.9574379236   -0.1476036423
C        0.9140137374   -0.0292654563   -0.1025824418
C       -0.3046361079    0.4838130998    0.7016805355
C       -0.8450582294   -0.6457415132    1.5937159490
N       -0.6159827255   -0.7206259915    2.8189463573
C        0.7767702605   -0.7145146007   -1.4296806864
C        1.2419296623    0.4954749017   -1.4685632774
H        1.7131797223   -0.3182459266    0.5878856932
H        0.0165759663    1.3046512457    1.3517707666
H       -1.4227427222   -1.4257859710    1.0746691315
H        0.4887225819   -1.6197832394   -1.9428561084
H        1.6193219672    1.3364229563   -2.0304515691
13   
Iteration 2 Energy -340.92654580
C       -2.1862965780    1.3273849715   -0.8844103654
N       -1.3438522198    0.9598728322   -0.1448552883
C        0.9111083210   -0.0283291052   -0.1042761447
C       -0.3065779968    0.4848461401    0.7025071846
C       -0.8462285404   -0.6460207979    1.5933820498
N       -0.6115978041   -0.7175191901    2.8175497820
C        0.7785116084   -0.7150663955   -1.4309229594
C        1.2436777561    0.4942388898   -1.4698287706
H        1.7086731287   -0.3175026021    0.5881425099
H        0.0156247085    1.3043411226    1.3540884152
H       -1.4239316483   -1.4261794834    1.0742006398
H        0.4924493112   -1.6215268120   -1.9434045231
H        1.6237672591    1.3345020073   -2.0311604560
13   
Iteration 3 Energy -340.92654954
C       -2.1851385638    1.3266396855   -0.8858989256
N       -1.3436714940    0.9610070193   -0.1447869244
C        0.9119634520   -0.0279554564   -0.1039498237
C       -0.3062756367    0.4856845998    0.7023432241
C       -0.8459458760   -0.6455976425    1.5934232653
N       -0.6135627758   -0.7191883899    2.8178537211
C        0.7780540811   -0.7153505169   -1.4301020356
C        1.2432133080    0.4942750603   -1.4698770737
H        1.7098530990   -0.3167990432    0.5881440141
H        0.0162001687    1.3051889303    1.3537018565
H       -1.4237375630   -1.4248573499    1.0730584059
H        0.4913454991   -1.6219723541   -1.9416321622
H        1.6225645437    1.3344826760   -2.0315261977
13   
Iteration 4 Energy -340.92655199
C       -2.1814009528    1.3247285301   -0.8905450290
N       -1.3425996573    0.9632305584   -0.1447603981
C        0.9127325628   -0.0271841958   -0.1030958031
C       -0.3058847059    0.4871573041    0.7025437516
C       -0.8464310213   -0.6448847808    1.5928092199
N       -0.6150941230   -0.7187226878    2.8173143165
C        0.7767215225   -0.7154322139   -1.4285220760
C        1.2420299184    0.4943888786   -1.4696095291
H        1.7109482435   -0.3156650455    0.5887014939
H        0.0171585833    1.3060618055    1.3542734543
H       -1.4240479582   -1.4235837995    1.0713857678
H        0.4887990561   -1.6223221334   -1.9386846020
H        1.6204691181    1.3345287148   -2.0318054861
13   
Iteration 5 Energy -340.92655312
C       -2.1785074983    1.3234359990   -0.8945774040
N       -1.3423087141    0.9665430867   -0.1436969945
C        0.9122064646   -0.0256358801   -0.1031126831
C       -0.3059459479    0.4893624413    0.7031447045
C       -0.8470806086   -0.6430731731    1.5929278346
N       -0.6175894983   -0.7198765394    2.8175687622
C        0.7764027086   -0.7160025774   -1.4275117227
C        1.2415448954    0.4938058173   -1.4704442319
H        1.7103509763   -0.3130864825    0.5891246341
H        0.0180331894    1.3073349609    1.3554987360
H       -1.4246034473   -1.4205355412    1.0696764984
H        0.4886093319   -1.6238337466   -1.9360552527
H        1.6200895965    1.3332058789   -2.0336700573
13   
Iteration 6 Energy -340.92655380
C       -2.1769047122    1.3234467033   -0.8966795665
N       -1.3418593710    0.9676801375   -0.1438365422
C        0.9121226152   -0.0253287801   -0.1027726564
C       -0.3059507772    0.4898368056    0.7032759037
C       -0.8480210796   -0.6423118375    1.5924829194
N       -0.6181035861   -0.7177718072    2.8171684858
C        0.7762221552   -0.7161007040   -1.4269473002
C        1.2411723469    0.4936946373   -1.4703546302
H        1.7104873296   -0.3123899471    0.5894217954
H        0.0181152908    1.3074559836    1.3560500441
H       -1.4255906724   -1.4201794715    1.0698230043
H        0.4884943571   -1.6240670390   -1.9353731252
H        1.6195343542    1.3328909344   -2.0340781831
13   
Iteration 7 Energy -340.92655395
C       -2.1760411510    1.3242500989   -0.8978831944
N       -1.3416157472    0.9686037285   -0.1441790790
C        0.9119036564   -0.0249635511   -0.1026147374
C       -0.3060579929    0.4903008647    0.7032771597
C       -0.8488791956   -0.6413322362    1.5922946246
N       -0.6191954075   -0.7162101298    2.8171258676
C        0.7763769657   -0.7163696075   -1.4265045961
C        1.2410750444    0.4934335244   -1.4704562510
H        1.7104340488   -0.3114660376    0.5896387215
H        0.0180112695    1.3078364310    1.3561897032
H       -1.4264880079   -1.4194857590    1.0700889860
H        0.4890335271   -1.6245497287   -1.9348315459
H        1.6194112755    1.3322689345   -2.0347818693
