13   
Iteration 13 Energy -340.92654335
C       -3.0295771883   -0.3927062876   -0.3618251807
N       -1.9427635741   -0.0598535544   -0.0470285152
C        0.4185796362   -0.4379015740   -0.5476867492
C       -0.6114871865    0.2928011419    0.3297957586
C       -0.3934619438   -0.0644743320    1.8102279281
N        0.0786727294    0.7381912936    2.6416108679
C        0.9942302609    0.2171483096   -1.7716498449
C        1.7895658812    0.1408683648   -0.7509243887
H        0.2779923146   -1.5237384582   -0.5234967328
H       -0.4864553230    1.3737218027    0.2159960290
H       -0.6492132080   -1.0970248048    2.0948470289
H        0.8014435620    0.4994735541   -2.7956233501
H        2.7524740396    0.3134945444   -0.2942428513
13   
Iteration 12 Energy -340.92654318
C       -3.0283212472   -0.3922399329   -0.3641281955
N       -1.9421692536   -0.0589506385   -0.0475037864
C        0.4192541538   -0.4377868542   -0.5469726034
C       -0.6110155586    0.2929176172    0.3303270837
C       -0.3941176920   -0.0648616004    1.8107962525
N        0.0779712416    0.7369313575    2.6431190100
C        0.9935068888    0.2167992402   -1.7718861164
C        1.7895217509    0.1414624057   -0.7515992783
H        0.2787722334   -1.5236687804   -0.5219424761
H       -0.4854222007    1.3738715297    0.2171546009
H       -0.6508178163   -1.0972004677    2.0953088967
H        0.7996581742    0.4979246539   -2.7959548212
H        2.7531793255    0.3148014699   -0.2967185664
13   
Iteration 11 Energy -340.92654166
C       -3.0259316263   -0.3895692080   -0.3671988544
N       -1.9399801328   -0.0568388892   -0.0493280145
C        0.4217274373   -0.4371470450   -0.5449787671
C       -0.6091294680    0.2933658362    0.3321926927
C       -0.3966314007   -0.0665607934    1.8125697417
N        0.0745161886    0.7339281358    2.6467270584
C        0.9922559155    0.2146442311   -1.7733961254
C        1.7900899534    0.1433174881   -0.7542174371
H        0.2810104140   -1.5229786862   -0.5181754588
H       -0.4825016621    1.3743332235    0.2206388972
H       -0.6553544326   -1.0988898021    2.0952012046
H        0.7952189611    0.4927493234   -2.7976093968
H        2.7547098527    0.3196461857   -0.3024255407
13   
Iteration 10 Energy -340.92653452
C       -3.0233368544   -0.3859781626   -0.3666201325
N       -1.9359833665   -0.0519694289   -0.0548446160
C        0.4264013262   -0.4387223030   -0.5412833489
C       -0.6053170034    0.2941832200    0.3330648319
C       -0.4009878461   -0.0686572260    1.8135745418
N        0.0696430233    0.7282336123    2.6514273852
C        0.9891155226    0.2109920598   -1.7743537743
C        1.7912857296    0.1461953734   -0.7579449927
H        0.2882374153   -1.5247802466   -0.5108546153
H       -0.4751366728    1.3748472353    0.2233701418
H       -0.6660754629   -1.1003717563    2.0922852147
H        0.7854406746    0.4876307458   -2.7976471757
H        2.7567135145    0.3283968767   -0.3101734599
13   
Iteration 9 Energy -340.92651523
C       -3.0273556560   -0.3885987909   -0.3501612164
N       -1.9364326289   -0.0477182877   -0.0586599330
C        0.4275086249   -0.4366972416   -0.5420458214
C       -0.6056245725    0.2957994404    0.3314770545
C       -0.4045423303   -0.0705309549    1.8117171134
N        0.0682379845    0.7238802576    2.6505122473
C        0.9923926740    0.2076327425   -1.7769691443
C        1.7936441606    0.1481858278   -0.7597555406
H        0.2924441641   -1.5228517718   -0.5079444509
H       -0.4733945870    1.3763964411    0.2246169878
H       -0.6738523049   -1.1019226086    2.0876428393
H        0.7891054962    0.4845894481   -2.8003580612
H        2.7578689753    0.3318354979   -0.3100720745
13   
Iteration 8 Energy -340.92648957
C       -3.0348355789   -0.4038572978   -0.3251704174
N       -1.9410909504   -0.0524465432   -0.0575068693
C        0.4218028031   -0.4381067447   -0.5487063491
C       -0.6095783011    0.2953128117    0.3245124549
C       -0.4007045407   -0.0660385085    1.8052029758
N        0.0768171905    0.7338980757    2.6357810823
C        0.9989925154    0.2137104501   -1.7735507128
C        1.7934101621    0.1419710998   -0.7517516050
H        0.2835816765   -1.5241969276   -0.5226617426
H       -0.4793101620    1.3758337430    0.2134112862
H       -0.6680513075   -1.0962527354    2.0877787708
H        0.8042189923    0.5040503027   -2.7949996145
H        2.7547475006    0.3161222742   -0.2923392593
13   
Iteration 7 Energy -340.92642085
C       -3.0477904731   -0.4435762212   -0.2809408468
N       -1.9531138347   -0.0702371768   -0.0492842038
C        0.4064808361   -0.4333367240   -0.5643213673
C       -0.6219107923    0.2950526604    0.3114289381
C       -0.3878101024   -0.0503933331    1.7941567085
N        0.0937132204    0.7555445740    2.6165666181
C        1.0161331119    0.2307628783   -1.7666252389
C        1.7934157901    0.1237771950   -0.7353912161
H        0.2529164589   -1.5175951273   -0.5583855184
H       -0.5033219540    1.3754064836    0.1853969243
H       -0.6434745326   -1.0801105253    2.0892685808
H        0.8445180255    0.5469722802   -2.7846573312
H        2.7502442461    0.2677330360   -0.2572120474
13   
Iteration 6 Energy -340.92632475
C       -3.0221335572   -0.3429894636   -0.3527413825
N       -1.9241016476   -0.0135752051   -0.0755008575
C        0.4349574651   -0.4398901121   -0.5344183511
C       -0.5959268959    0.2992462513    0.3325636358
C       -0.4148867550   -0.0906793820    1.8137784423
N        0.0609626007    0.6728348059    2.6789101238
C        0.9812561453    0.1779999937   -1.7897421267
C        1.7857218192    0.1776600399   -0.7742756445
H        0.3380557461   -1.5278127316   -0.4580510675
H       -0.4459531376    1.3789376945    0.2342948945
H       -0.7078793220   -1.1204428389    2.0728260891
H        0.7680787428    0.4250909020   -2.8190635224
H        2.7418487961    0.4036200460   -0.3285802333
13   
Iteration 5 Energy -340.92526075
C       -3.0559900760   -0.3015639208   -0.3462072528
N       -1.9454815685   -0.0014749556   -0.0813798812
C        0.4473851407   -0.4456088250   -0.5371230360
C       -0.6036739915    0.2739643248    0.3214141346
C       -0.4328860952   -0.1133838928    1.8000926988
N        0.0601048855    0.6863379856    2.6250391748
C        0.9767601574    0.1802939903   -1.7999944232
C        1.7842516453    0.1850647704   -0.7858975741
H        0.4119012602   -1.5340560146   -0.4098021940
H       -0.4114640800    1.3516479326    0.2844955654
H       -0.7294544739   -1.1313276531    2.0905984057
H        0.7606668907    0.4288282696   -2.8273095404
H        2.7378803053    0.4212779885   -0.3339260776
13   
Iteration 4 Energy -340.92439803
C       -3.0234030415   -0.2049738195   -0.4336578926
N       -1.9172424113    0.0479369321   -0.1077717535
C        0.4901924623   -0.4428310238   -0.4954111640
C       -0.5806864056    0.2758445777    0.3466392950
C       -0.4716512499   -0.1521538821    1.8171558499
N        0.0079604356    0.6200785593    2.6758916546
C        0.9369777151    0.1337957910   -1.8123024156
C        1.7873298811    0.2239256573   -0.8379260016
H        0.5158036253   -1.5212444740   -0.2998388725
H       -0.3607458704    1.3486031812    0.3578606092
H       -0.7975440057   -1.1702129870    2.0712390896
H        0.6648133887    0.3160162106   -2.8398962467
H        2.7481954763    0.5252152772   -0.4419821517
13   
Iteration 3 Energy -340.92381688
C       -2.8609477987    0.0635720232   -0.6599471460
N       -1.7975678501    0.1953589361   -0.1655513378
C        0.5928926347   -0.4189637984   -0.3896387329
C       -0.5025086334    0.3050901243    0.4306053316
C       -0.5591443433   -0.2574283825    1.8572981324
N       -0.1431989548    0.3947611661    2.8387094763
C        0.8365442255   -0.0317484393   -1.8215661918
C        1.7441046562    0.3418780522   -0.9749410014
H        0.7650496409   -1.4446694064   -0.0460057622
H       -0.2418327967    1.3633172336    0.5348545292
H       -0.9556568190   -1.2771592923    1.9693195317
H        0.4456721082   -0.0732449163   -2.8261698203
H        2.6765939306    0.8392366996   -0.7469670090
13   
Iteration 2 Energy -340.92328529
C       -2.7163116022    0.2427140052   -0.7967563337
N       -1.7029632047    0.2953714303   -0.1952229778
C        0.6661543193   -0.3831591672   -0.3193770302
C       -0.4496066198    0.3310330895    0.4913250396
C       -0.6155308289   -0.3253508297    1.8687525912
N       -0.2667101296    0.2304055793    2.9312488064
C        0.7756910751   -0.1549825320   -1.7994411820
C        1.6892327095    0.4117241174   -1.0758743882
H        0.9446699988   -1.3505670025    0.1102761007
H       -0.1783457685    1.3781669446    0.6584860094
H       -1.0410801699   -1.3405684019    1.8687562985
H        0.3228454389   -0.3625622560   -2.7565898537
H        2.5719547818    1.0277750229   -0.9855830803
13   
Iteration 1 Energy -340.92314758
C       -2.6685357977    0.2915767097   -0.8331192049
N       -1.6726258220    0.3228939542   -0.2020825793
C        0.6859226872   -0.3714213579   -0.3002717939
C       -0.4337903273    0.3390675689    0.5095682564
C       -0.6301439473   -0.3446757889    1.8701812475
N       -0.3024781875    0.1854105633    2.9518495157
C        0.7595813885   -0.1900350120   -1.7881181335
C        1.6683998640    0.4302492378   -1.1038362413
H        0.9926963988   -1.3212381267    0.1481887496
H       -0.1622721140    1.3837787033    0.6904828377
H       -1.0612910272   -1.3577321863    1.8389914109
H        0.2929357123   -0.4448919996   -2.7272017931
H        2.5316011725    1.0770177343   -1.0546322718
13   
Iteration 31 Energy -340.92311720
C       -2.6583444338    0.3004129759   -0.8399636569
N       -1.6658293855    0.3280920766   -0.2035279773
C        0.6892514510   -0.3700290861   -0.2970109690
C       -0.4299785389    0.3409906770    0.5128128895
C       -0.6316839938   -0.3464888519    1.8712157316
N       -0.3102980715    0.1736752701    2.9595203283
C        0.7562942479   -0.1971599216   -1.7858928265
C        1.6631124302    0.4340972739   -1.1090185576
H        1.0010754823   -1.3167990576    0.1542745674
H       -0.1582168226    1.3854963975    0.6944134893
H       -1.0645004989   -1.3585926330    1.8320458006
H        0.2874744847   -0.4610508648   -2.7214377687
H        2.5216436489    1.0873557440   -1.0674310507
13   
Iteration 30 Energy -340.92311696
C       -2.6583493575    0.3004756310   -0.8399661429
N       -1.6658498033    0.3281216908   -0.2035349604
C        0.6892298711   -0.3700232798   -0.2970277164
C       -0.4300001315    0.3409670473    0.5128172861
C       -0.6317253018   -0.3465480314    1.8712049832
N       -0.3103251035    0.1735894170    2.9595129993
C        0.7562510043   -0.1971875568   -1.7859108211
C        1.6630309529    0.4340607118   -1.1090596931
H        1.0010766740   -1.3171019223    0.1543230854
H       -0.1581813765    1.3856423328    0.6944367544
H       -1.0645092903   -1.3585103842    1.8319965654
H        0.2874703973   -0.4610693380   -2.7213152327
H        2.5218814649    1.0875836818   -1.0674771071
13   
Iteration 29 Energy -340.92309659
C       -2.6547846441    0.3064251816   -0.8426238818
N       -1.6632614272    0.3317706515   -0.2045073910
C        0.6915867749   -0.3683297738   -0.2951220408
C       -0.4288605867    0.3416117036    0.5142419084
C       -0.6336444654   -0.3491990110    1.8704439606
N       -0.3129492956    0.1675922898    2.9605957408
C        0.7549968110   -0.2017570357   -1.7848562187
C        1.6605342759    0.4362193632   -1.1124825038
H        1.0091689304   -1.3110109810    0.1604473043
H       -0.1565940379    1.3852928401    0.6995718864
H       -1.0678675503   -1.3606152954    1.8280497390
H        0.2854821650   -0.4714077685   -2.7184422785
H        2.5161930500    1.0934078356   -1.0753162249
13   
Iteration 28 Energy -340.92308888
C       -2.6535985262    0.3087016378   -0.8436655363
N       -1.6624026496    0.3330243864   -0.2049366651
C        0.6923538674   -0.3676768627   -0.2944656959
C       -0.4285217848    0.3417993351    0.5146846860
C       -0.6342792181   -0.3501546052    1.8700998292
N       -0.3139133407    0.1654420926    2.9609526201
C        0.7544369936   -0.2034276002   -1.7845156623
C        1.6596496514    0.4368751834   -1.1137607483
H        1.0125772734   -1.3081640878    0.1630746435
H       -0.1561874745    1.3850240514    0.7015115967
H       -1.0689348999   -1.3614985647    1.8266655027
H        0.2847122603   -0.4750670160   -2.7175779133
H        2.5141078476    1.0951220499   -1.0780666571
13   
Iteration 27 Energy -340.92307771
C       -2.6512578999    0.3120798780   -0.8450435284
N       -1.6607302959    0.3353795655   -0.2053369061
C        0.6939934854   -0.3666758579   -0.2932320933
C       -0.4277108603    0.3422676925    0.5157192115
C       -0.6355563882   -0.3518467460    1.8697586975
N       -0.3154766326    0.1616530400    2.9616344996
C        0.7538583877   -0.2061766639   -1.7838313101
C        1.6579321313    0.4383219161   -1.1157992265
H        1.0164786616   -1.3061528127    0.1659597977
H       -0.1549341498    1.3853588220    0.7043784547
H       -1.0712123489   -1.3623922829    1.8240916660
H        0.2837210839   -0.4814549789   -2.7153550577
H        2.5108948258    1.0996384282   -1.0829442049
13   
Iteration 26 Energy -340.92306927
C       -2.6496034892    0.3146978217   -0.8461890144
N       -1.6595345888    0.3370404773   -0.2057298601
C        0.6950737658   -0.3659029677   -0.2923649685
C       -0.4271802083    0.3425866373    0.5163908242
C       -0.6364476166   -0.3530409571    1.8694277916
N       -0.3166731207    0.1589286236    2.9621197075
C        0.7533633761   -0.2082319612   -1.7832867812
C        1.6567893414    0.4393530663   -1.1173302073
H        1.0198804085   -1.3036555876    0.1685093933
H       -0.1541772749    1.3852821029    0.7066582435
H       -1.0727414517   -1.3632797892    1.8222594772
H        0.2829001616   -0.4861985307   -2.7138827616
H        2.5083506965    1.1024210645   -1.0865818443
13   
Iteration 25 Energy -340.92306341
C       -2.6484593522    0.3165669656   -0.8469843850
N       -1.6586980809    0.3382013576   -0.2060284550
C        0.6958769128   -0.3653455623   -0.2917321833
C       -0.4268045672    0.3428146411    0.5168702679
C       -0.6370507336   -0.3538946371    1.8692011607
N       -0.3175079233    0.1569573917    2.9624832269
C        0.7529842851   -0.2097011831   -1.7829565319
C        1.6559223265    0.4400058344   -1.1184211157
H        1.0223269426   -1.3019668450    0.1703593487
H       -0.1536694057    1.3853052171    0.7082192165
H       -1.0737909316   -1.3638693284    1.8209429756
H        0.2823234012   -0.4894829117   -2.7128900586
H        2.5065471263    1.1044090601   -1.0890634667
13   
Iteration 24 Energy -340.92305957
C       -2.6478654171    0.3177874828   -0.8474604410
N       -1.6582470673    0.3389347849   -0.2062379676
C        0.6963858852   -0.3650454012   -0.2914165316
C       -0.4265927483    0.3428852973    0.5171072723
C       -0.6373486618   -0.3544275556    1.8689723853
N       -0.3179535701    0.1556668599    2.9626692039
C        0.7525159444   -0.2106555832   -1.7830289985
C        1.6552411158    0.4401160441   -1.1191841306
H        1.0247685610   -1.3001918069    0.1720858424
H       -0.1534294231    1.3851601765    0.7093474960
H       -1.0745797304   -1.3642039020    1.8201455560
H        0.2819029693   -0.4912454163   -2.7127871441
H        2.5052021423    1.1052190197   -1.0902125424
13   
Iteration 23 Energy -340.92305719
C       -2.6471771202    0.3185645739   -0.8478038904
N       -1.6577662118    0.3394403309   -0.2062845769
C        0.6966900798   -0.3647887425   -0.2910717822
C       -0.4263488422    0.3430632658    0.5173685837
C       -0.6376939116   -0.3547765933    1.8689235117
N       -0.3184170108    0.1547727248    2.9628909025
C        0.7525953752   -0.2112889227   -1.7825366483
C        1.6549809042    0.4407876243   -1.1195659042
H        1.0249027775   -1.3001437756    0.1723091951
H       -0.1530145999    1.3852958269    0.7098402239
H       -1.0749809792   -1.3644617066    1.8194425742
H        0.2816976607   -0.4930817871   -2.7117471460
H        2.5045318782    1.1066171812   -1.0917650431
13   
Iteration 22 Energy -340.92305519
C       -2.6467830571    0.3192347933   -0.8480798447
N       -1.6574758772    0.3398442989   -0.2063889914
C        0.6969686014   -0.3645989896   -0.2908568314
C       -0.4262131729    0.3431363670    0.5175274307
C       -0.6378926798   -0.3550725903    1.8688294411
N       -0.3187066339    0.1540581045    2.9630201085
C        0.7524368056   -0.2118151864   -1.7824423393
C        1.6546555417    0.4409889956   -1.1199561350
H        1.0258627475   -1.2994623192    0.1730276275
H       -0.1528370126    1.3852869986    0.7103923369
H       -1.0753606329   -1.3646620078    1.8189675333
H        0.2814853886   -0.4942140719   -2.7114436217
H        2.5038599814    1.1072756074   -1.0925967146
13   
Iteration 21 Energy -340.92305377
C       -2.6464790868    0.3197105457   -0.8482642961
N       -1.6572539542    0.3401086202   -0.2064427586
C        0.6971564442   -0.3644972964   -0.2906943807
C       -0.4260980534    0.3432123877    0.5176357903
C       -0.6380256560   -0.3552485441    1.8687571346
N       -0.3189252348    0.1535263841    2.9631365428
C        0.7523553754   -0.2121856338   -1.7823167873
C        1.6544380855    0.4411769762   -1.1201956403
H        1.0264004320   -1.2991046490    0.1734493098
H       -0.1526718343    1.3853092338    0.7107149510
H       -1.0755907072   -1.3647821590    1.8185688544
H        0.2813254423   -0.4950503112   -2.7111354990
H        2.5033687472    1.1078244457   -1.0932132209
13   
Iteration 20 Energy -340.92305277
C       -2.6462605082    0.3200462874   -0.8483937762
N       -1.6570946637    0.3402930492   -0.2064785215
C        0.6972890057   -0.3644284582   -0.2905775112
C       -0.4260147229    0.3432697442    0.5177127631
C       -0.6381192697   -0.3553689451    1.8687063588
N       -0.3190816812    0.1531492019    2.9632218924
C        0.7523032133   -0.2124468548   -1.7822196191
C        1.6542873858    0.4413171822   -1.1203601301
H        1.0267582834   -1.2988687994    0.1737323019
H       -0.1525513111    1.3853281600    0.7109352693
H       -1.0757477447   -1.3648656004    1.8182803775
H        0.2812122082   -0.4956478958   -2.7109041853
H        2.5030198051    1.1082229288   -1.0936552195
13   
Iteration 19 Energy -340.92305207
C       -2.6461011541    0.3202804446   -0.8484836535
N       -1.6569786274    0.3404210975   -0.2065004887
C        0.6973831134   -0.3643796949   -0.2904908745
C       -0.4259528270    0.3433135034    0.5177698127
C       -0.6381858099   -0.3554516180    1.8686733812
N       -0.3191939789    0.1528833255    2.9632857777
C        0.7522755728   -0.2126293266   -1.7821396274
C        1.6541861202    0.4414282168   -1.1204699414
H        1.0269715935   -1.2987307031    0.1739075168
H       -0.1524624727    1.3853479214    0.7110752223
H       -1.0758523212   -1.3649248412    1.8180726311
H        0.2811343217   -0.4960786970   -2.7107221842
H        2.5027764696    1.1085203716   -1.0939775721
13   
Iteration 18 Energy -340.92305156
C       -2.6459842230    0.3204427031   -0.8485450984
N       -1.6568933767    0.3405097013   -0.2065127896
C        0.6974518148   -0.3643439319   -0.2904248274
C       -0.4259064619    0.3433471084    0.5178143645
C       -0.6382326643   -0.3555088703    1.8686540509
N       -0.3192741462    0.1526965956    2.9633343071
C        0.7522652721   -0.2127553729   -1.7820730474
C        1.6541199100    0.4415174840   -1.1205409750
H        1.0270815589   -1.2986625666    0.1740063801
H       -0.1523992016    1.3853698535    0.7111538160
H       -1.0759190683   -1.3649681521    1.8179241158
H        0.2810821229   -0.4963895883   -2.7105771080
H        2.5026084633    1.1087450361   -1.0942131886
13   
Iteration 17 Energy -340.92305120
C       -2.6458984654    0.3205547160   -0.8485863107
N       -1.6568307174    0.3405709513   -0.2065187900
C        0.6975031298   -0.3643172691   -0.2903741631
C       -0.4258717261    0.3433726114    0.5178500901
C       -0.6382650511   -0.3555490106    1.8686440869
N       -0.3193307182    0.1525655402    2.9633711500
C        0.7522653357   -0.2128414250   -1.7820187492
C        1.6540772672    0.4415882733   -1.1205858100
H        1.0271262738   -1.2986381565    0.1740567386
H       -0.1523563096    1.3853927424    0.7111894996
H       -1.0759600481   -1.3650004225    1.8178189612
H        0.2810479701   -0.4966127066   -2.7104625877
H        2.5024930593    1.1089141559   -1.0943841158
13   
Iteration 16 Energy -340.92305094
C       -2.6458359153    0.3206318689   -0.8486135502
N       -1.6567847849    0.3406133024   -0.2065209970
C        0.6975418793   -0.3642974368   -0.2903356143
C       -0.4258457454    0.3433916051    0.5178788690
C       -0.6382869487   -0.3555773353    1.8686398869
N       -0.3193701292    0.1524735694    2.9633988427
C        0.7522705057   -0.2128996638   -1.7819757388
C        1.6540500107    0.4416431207   -1.1206136730
H        1.0271348416   -1.2986363158    0.1740791071
H       -0.1523287456    1.3854141354    0.7111985632
H       -1.0759844828   -1.3650247690    1.8177452229
H        0.2810261059   -0.4967717026   -2.7103741060
H        2.5024134087    1.1090396215   -1.0945068124
13   
Iteration 15 Energy -340.92305076
C       -2.6457904341    0.3206847375   -0.8486314160
N       -1.6567511488    0.3406425759   -0.2065211691
C        0.6975713059   -0.3642827467   -0.2903065241
C       -0.4258262330    0.3434056253    0.5179017131
C       -0.6383013519   -0.3555972104    1.8686389684
N       -0.3193972128    0.1524093521    2.9634193957
C        0.7522776419   -0.2129389723   -1.7819425413
C        1.6540328017    0.4416848168   -1.1206309191
H        1.0271262056   -1.2986418961    0.1740864113
H       -0.1523119745    1.3854313808    0.7111933666
H       -1.0759988830   -1.3650435400    1.8176941686
H        0.2810124424   -0.4968844819   -2.7103073689
H        2.5023568407    1.1091303590   -1.0945940851
13   
Iteration 14 Energy -340.92305062
C       -2.6457574013    0.3207206475   -0.8486430822
N       -1.6567265130    0.3406628138   -0.2065203833
C        0.6975936705   -0.3642717962   -0.2902847057
C       -0.4258114476    0.3434158666    0.5179195634
C       -0.6383105388   -0.3556110553    1.8686397928
N       -0.3194155631    0.1523648663    2.9634344352
C        0.7522850331   -0.2129655485   -1.7819174711
C        1.6540221444    0.4417161445   -1.1206416745
H        1.0271111060   -1.2986467960    0.1740862134
H       -0.1523023607    1.3854432703    0.7111817176
H       -1.0760074577   -1.3650582623    1.8176594194
H        0.2810042785   -0.4969642273   -2.7102580442
H        2.5023150497    1.1091940767   -1.0946557807
13   
Iteration 13 Energy -340.92305053
C       -2.6457326917    0.3207385074   -0.8486480014
N       -1.6567071373    0.3406766062   -0.2065171867
C        0.6976123073   -0.3642579720   -0.2902668473
C       -0.4257960646    0.3434195246    0.5179371223
C       -0.6383137101   -0.3556230513    1.8686451816
N       -0.3194241198    0.1523373310    2.9634442976
C        0.7522957205   -0.2129803205   -1.7818992235
C        1.6540183704    0.4417427362   -1.1206480461
H        1.0270821855   -1.2986327865    0.1740800311
H       -0.1523013737    1.3854431482    0.7111466082
H       -1.0760140504   -1.3650751508    1.8176465090
H        0.2810048822   -0.4970152049   -2.7102250672
H        2.5022756817    1.1092266323   -1.0946953775
13   
Iteration 12 Energy -340.92304992
C       -2.6455900903    0.3209063328   -0.8486925251
N       -1.6566030566    0.3407528750   -0.2065090880
C        0.6977230709   -0.3642531351   -0.2901646306
C       -0.4257603176    0.3435059565    0.5180123950
C       -0.6383516860   -0.3556532223    1.8686482947
N       -0.3195097903    0.1521635369    2.9635277596
C        0.7523369783   -0.2130887757   -1.7817657670
C        1.6539921296    0.4418779494   -1.1206530118
H        1.0269657238   -1.2988658123    0.1739463366
H       -0.1523026520    1.3855764794    0.7111410483
H       -1.0760065618   -1.3651060364    1.8174468380
H        0.2809601275   -0.4973787598   -2.7099651755
H        2.5021461246    1.1095626115   -1.0949724741
13   
Iteration 11 Energy -340.92304940
C       -2.6454806726    0.3210027860   -0.8487051133
N       -1.6565186500    0.3408121459   -0.2064866217
C        0.6978148653   -0.3642185447   -0.2900788098
C       -0.4257144991    0.3435475467    0.5180972017
C       -0.6383691041   -0.3556963465    1.8686749783
N       -0.3195535933    0.1520433716    2.9635871409
C        0.7523903832   -0.2131480946   -1.7816640786
C        1.6539842863    0.4419944085   -1.1206471531
H        1.0267813406   -1.2990393381    0.1738101452
H       -0.1523392807    1.3856813123    0.7109932692
H       -1.0760056511   -1.3651512113    1.8173527047
H        0.2809537507   -0.4976180830   -2.7097752795
H        2.5020568249    1.1097900470   -1.0951583838
13   
Iteration 10 Energy -340.92304899
C       -2.6454058837    0.3210664444   -0.8487056103
N       -1.6564587735    0.3408528537   -0.2064641696
C        0.6978827717   -0.3641932017   -0.2900168812
C       -0.4256819554    0.3435736025    0.5181660431
C       -0.6383772334   -0.3557301855    1.8687001750
N       -0.3195786704    0.1519600092    2.9636304656
C        0.7524339958   -0.2131802297   -1.7815895816
C        1.6539834300    0.4420762266   -1.1206327535
H        1.0266194414   -1.2992114101    0.1736894826
H       -0.1523873060    1.3857853336    0.7108442441
H       -1.0759968439   -1.3651821155    1.8172950003
H        0.2809541549   -0.4977721665   -2.7096378040
H        2.5020128725    1.1099548391   -1.0952786106
13   
Iteration 9 Energy -340.92304867
C       -2.6453570652    0.3211084545   -0.8487014903
N       -1.6564178473    0.3408817388   -0.2064449004
C        0.6979286235   -0.3641713913   -0.2899756089
C       -0.4256586368    0.3435837922    0.5182191902
C       -0.6383821144   -0.3557607683    1.8687207449
N       -0.3195930950    0.1518979282    2.9636592984
C        0.7524656648   -0.2131965248   -1.7815388975
C        1.6539816362    0.4421311155   -1.1206203398
H        1.0264945729   -1.2993638476    0.1736064121
H       -0.1524283665    1.3858855155    0.7107115332
H       -1.0759894533   -1.3652033011    1.8172625925
H        0.2809564227   -0.4978670298   -2.7095442427
H        2.5019996584    1.1100743182   -1.0953542916
13   
Iteration 8 Energy -340.92304449
C       -2.6449557025    0.3214777889   -0.8484636491
N       -1.6560979468    0.3411511923   -0.2061784812
C        0.6983285078   -0.3642319658   -0.2895669550
C       -0.4254437116    0.3438176306    0.5187441028
C       -0.6382769164   -0.3557957240    1.8690137799
N       -0.3195501354    0.1516592451    2.9639582681
C        0.7528007727   -0.2132822201   -1.7810165622
C        1.6541010194    0.4423066386   -1.1203162179
H        1.0260208906   -1.3006499821    0.1717404623
H       -0.1539295586    1.3867931120    0.7093365365
H       -1.0758501741   -1.3652815053    1.8172340138
H        0.2810628321   -0.4984446582   -2.7087251820
H        2.5017901230    1.1104804482   -1.0957601159
13   
Iteration 7 Energy -340.92302759
C       -2.6416447598    0.3276466991   -0.8508779704
N       -1.6537906652    0.3441680410   -0.2069880998
C        0.7005907363   -0.3629599214   -0.2876239679
C       -0.4244756050    0.3446392143    0.5200640041
C       -0.6397097850   -0.3580021669    1.8682757576
N       -0.3223268020    0.1461081625    2.9651505000
C        0.7518054011   -0.2175575230   -1.7796686556
C        1.6516614591    0.4441233996   -1.1231063630
H        1.0328063631   -1.2963306400    0.1765478737
H       -0.1530632985    1.3871483131    0.7133211013
H       -1.0775078844   -1.3672218138    1.8130557434
H        0.2793322508   -0.5080198023   -2.7053429002
H        2.4963225894    1.1162580378   -1.1028070233
13   
Iteration 6 Energy -340.92299893
C       -2.6340594250    0.3395953190   -0.8567851943
N       -1.6482746615    0.3533181908   -0.2094783803
C        0.7055675041   -0.3580413413   -0.2842508422
C       -0.4222355082    0.3453976745    0.5227270689
C       -0.6450792902   -0.3649365690    1.8659121566
N       -0.3281002535    0.1326966447    2.9660900623
C        0.7484140694   -0.2282254122   -1.7785940144
C        1.6449366432    0.4485735116   -1.1325410065
H        1.0539148147   -1.2784405442    0.1940912942
H       -0.1465328860    1.3843070753    0.7296062509
H       -1.0877145127   -1.3715889346    1.8045710736
H        0.2758261285   -0.5315431491   -2.7001438852
H        2.4833373773    1.1288875346   -1.1212045835
13   
Iteration 5 Energy -340.92297099
C       -2.6255541072    0.3530514404   -0.8618622215
N       -1.6421314419    0.3614795602   -0.2109501746
C        0.7113022155   -0.3539001831   -0.2795243171
C       -0.4194340990    0.3473604267    0.5264449764
C       -0.6490707699   -0.3708627685    1.8641715835
N       -0.3342433563    0.1183279735    2.9686658034
C        0.7465484808   -0.2388035609   -1.7750879799
C        1.6386811781    0.4537379152   -1.1398635790
H        1.0697804570   -1.2668879562    0.2053169145
H       -0.1439445496    1.3851216055    0.7392490785
H       -1.0941621821   -1.3759011669    1.7944319576
H        0.2727573608   -0.5560789629   -2.6912709837
H        2.4694708139    1.1433556769   -1.1397210581
13   
Iteration 4 Energy -340.92295027
C       -2.6180254467    0.3650560341   -0.8668707471
N       -1.6366210497    0.3698403325   -0.2128428418
C        0.7164511593   -0.3496154257   -0.2757245239
C       -0.4172101239    0.3486063591    0.5294595450
C       -0.6535422872   -0.3769759969    1.8620725016