13   
Iteration 1 Energy -340.92654345
C       -3.0161968569   -0.3620122388   -0.3502134760
N       -1.9293811517   -0.0290863204   -0.0354790067
C        0.4319872996   -0.4069096893   -0.5360821142
C       -0.5981271038    0.3237528118    0.3413517459
C       -0.3801660940   -0.0332579193    1.8218401867
N        0.0918688673    0.7695316852    2.6531626120
C        1.0077745507    0.2480868647   -1.7600095621
C        1.8029846042    0.1718776828   -0.7391894904
H        0.2914363896   -1.4927539165   -0.5119163178
H       -0.4732394394    1.4046761741    0.2273728663
H       -0.6358963141   -1.0657825281    2.1065727250
H        0.8150633662    0.5302750953   -2.7840340541
H        2.7658567175    0.3445058445   -0.2824337680
13   
Iteration 7 Energy -340.92393738
C       -2.3529462870    0.3319045554   -1.2810367057
N       -1.5421395555    0.4137860973   -0.4295983527
C        0.8886526096    0.2177889071   -0.0891278586
C       -0.5051281960    0.4918755206    0.5324039884
C       -0.7382102267   -0.4683465655    1.7067785736
N       -1.6811037770   -1.2792389870    1.8201574433
C        1.1090489314   -0.8412598275   -1.1244244365
C        1.1529623589    0.3813826683   -1.5547124136
H        1.6739609935    0.4423948729    0.6421777269
H       -0.5013712448    1.5099340955    0.9480072091
H        0.0352725067   -0.4106301080    2.4897211317
H        1.1655460205   -1.9027904080   -1.3120601963
H        1.2738244304    1.0882152300   -2.3615362284
