3    
Iteration 0 Energy -92.35406017
C        0.0194876257    0.0214346630   -0.0000000000
N       -0.7454621472   -0.8199441009    0.0000000000
H        0.7259745215    0.7985094380   -0.0000000000
3    
Iteration 1 Energy -92.35406017
C        0.0194880536    0.0214351636    0.0000000000
N       -0.7454616114   -0.8199435313    0.0000000000
H        0.7259735578    0.7985083678   -0.0000000000
