13   
Iteration 0 Energy -340.92429178
C       -2.2986069332   -0.8387543891    0.4302484490
N       -1.9668951413    0.3115390771    0.0427619890
C        0.4309337025    0.8949758418   -0.5045312149
C       -0.5703014387    0.4492554511    0.5632265515
C       -0.3491943532   -0.8910335254    1.2284034101
N       -1.3914921478   -1.6544565619    1.1620634335
C        1.7398417020    0.1750200088   -0.7362173041
C        0.8320719020   -0.0024799444   -1.6458633352
H        0.3746950461    1.9714791738   -0.6842196073
H       -0.6086168527    1.2195106909    1.3496749974
H        0.5592268789   -1.2020591648    1.7391487588
H        2.7350812490   -0.0054393502   -0.3599893558
H        0.5132563864   -0.4275573077   -2.5847067720
13   
Iteration 1 Energy -340.92440302
C       -2.2907144345   -0.8291316965    0.4119903737
N       -1.9612322525    0.3271259289    0.0423383133
C        0.4332810367    0.8995679486   -0.4972977571
C       -0.5676821853    0.4547149350    0.5696236412
C       -0.3515746392   -0.8950236105    1.2186718674
N       -1.3896365173   -1.6596997591    1.1366975909
C        1.7424606162    0.1859215489   -0.7356893684
C        0.8225070072   -0.0176680464   -1.6249780743
H        0.3700776440    1.9745172855   -0.6890195153
H       -0.6050922915    1.2195358799    1.3618673999
H        0.5558381966   -1.2147876113    1.7273990087
H        2.7451075741    0.0196219562   -0.3697467403
H        0.4918114490   -0.4659258228   -2.5495046708
13   
Iteration 2 Energy -340.92448779
C       -2.2919663278   -0.8186569188    0.4036030206
N       -1.9603400853    0.3416775753    0.0506263088
C        0.4295528469    0.8954657243   -0.4965407837
C       -0.5659437996    0.4583400761    0.5787838047
C       -0.3526217865   -0.8986093139    1.2142055103
N       -1.3912569306   -1.6600911034    1.1190482803
C        1.7432517910    0.1922644018   -0.7347336311
C        0.8230617157   -0.0268478768   -1.6183212443
H        0.3549498816    1.9682626518   -0.6981653136
H       -0.5964262451    1.2197828223    1.3747947982
H        0.5549021750   -1.2271313193    1.7183824277
H        2.7493906106    0.0400513475   -0.3707890030
H        0.4928142606   -0.4877449373   -2.5371086153
13   
Iteration 3 Energy -340.92462617
C       -2.2984760980   -0.7911464544    0.3891431557
N       -1.9592933308    0.3795484255    0.0818314317
C        0.4178195510    0.8927854175   -0.4997498069
C       -0.5578793461    0.4679150577    0.6002322683
C       -0.3563315851   -0.9106074430    1.1922694218
N       -1.3971867195   -1.6644137402    1.0706010348
C        1.7432203435    0.2119593498   -0.7245607292
C        0.8248167222   -0.0512421441   -1.5976752531
H        0.3122996098    1.9569971674   -0.7335738148
H       -0.5607183288    1.2188913029    1.4056688140
H        0.5518826507   -1.2633181881    1.6790779059
H        2.7543880587    0.0956467045   -0.3606792131
H        0.4989827640   -0.5518712199   -2.4972145859
13   
Iteration 4 Energy -340.92472284
C       -2.3143953503   -0.7636363207    0.3932174985
N       -1.9635519025    0.4087664064    0.1089980194
C        0.4099083107    0.8851759547   -0.5042236044
C       -0.5536378257    0.4656552147    0.6107760824
C       -0.3644442065   -0.9255126251    1.1776382666
N       -1.4169259527   -1.6621270495    1.0488005741
C        1.7523287366    0.2356656525   -0.7228660691
C        0.8365519031   -0.0676912883   -1.5873992811
H        0.2755481655    1.9412113764   -0.7575692543
H       -0.5274160909    1.2101084945    1.4203357749
H        0.5419119521   -1.2989789267    1.6513031333
H        2.7680476862    0.1549750899   -0.3634923889
H        0.5201961848   -0.5964300022   -2.4738472660
13   
Iteration 5 Energy -340.92485821
C       -2.3445442638   -0.7169076508    0.4207997890
N       -1.9702750704    0.4529691233    0.1578465816
C        0.3938857846    0.8742852954   -0.5185507336
C       -0.5461177934    0.4569805266    0.6193770856
C       -0.3803744543   -0.9511883048    1.1481739324
N       -1.4557503416   -1.6564535290    1.0282302338
C        1.7640300394    0.2771532878   -0.7169531701
C        0.8626743240   -0.0901315713   -1.5741964395
H        0.2136115867    1.9152777181   -0.8017434589
H       -0.4667157597    1.1879591014    1.4367001416
H        0.5249318100   -1.3598164636    1.5923066840
H        2.7825635222    0.2523211575   -0.3588195815
H        0.5723887283   -0.6622369299   -2.4422721563
13   
Iteration 6 Energy -340.92494921
C       -2.3691243696   -0.6871843622    0.4544647735
N       -1.9757140040    0.4765030600    0.1890599740
C        0.3841403280    0.8683125596   -0.5318735793
C       -0.5423218914    0.4462607035    0.6152883195
C       -0.3916056064   -0.9687146583    1.1267334900
N       -1.4867419464   -1.6485053393    1.0315140946
C        1.7718485213    0.3066942817   -0.7132851343
C        0.8846610560   -0.1017753517   -1.5676090691
H        0.1775793193    1.8998021825   -0.8307115721
H       -0.4285050550    1.1642784669    1.4407471091
H        0.5149761369   -1.4006782523    1.5448511573
H        2.7900608983    0.3158611721   -0.3537700283
H        0.6167365598   -0.6981216765   -2.4265762458
13   
Iteration 7 Energy -340.92500010
C       -2.3831369785   -0.6726140301    0.4859710570
N       -1.9789675302    0.4844899056    0.2042697962
C        0.3790839406    0.8644456173   -0.5428771624
C       -0.5411775848    0.4381869902    0.6061582083
C       -0.3986393824   -0.9783017115    1.1146822245
N       -1.5049162928   -1.6436140990    1.0473312523
C        1.7759232115    0.3219459748   -0.7113782454
C        0.9010125456   -0.1048542119   -1.5688080730
H        0.1610996563    1.8919913319   -0.8473356180
H       -0.4132228132    1.1460072405    1.4398918667
H        0.5107756746   -1.4226468348    1.5131226188
H        2.7923063417    0.3463892311   -0.3468303408
H        0.6496439866   -0.7074807882   -2.4285873365
13   
Iteration 8 Energy -340.92501221
C       -2.3868292481   -0.6686120302    0.4939093594
N       -1.9792632323    0.4861289870    0.2067833577
C        0.3777883039    0.8650131234   -0.5460423566
C       -0.5400427963    0.4358039931    0.6019385128
C       -0.3976789957   -0.9817691086    1.1091119844
N       -1.5079440931   -1.6413469987    1.0505481711
C        1.7761676781    0.3267376757   -0.7097681256
C        0.9044492614   -0.1074444605   -1.5661349028
H        0.1564476895    1.8910966401   -0.8541041850
H       -0.4118352849    1.1380293957    1.4411074639
H        0.5138012510   -1.4304162926    1.4987052483
H        2.7918759878    0.3554698211   -0.3429638845
H        0.6570667370   -0.7124102100   -2.4255920780
13   
Iteration 9 Energy -340.92501639
C       -2.3875560001   -0.6683473712    0.4953635893
N       -1.9787737122    0.4857037049    0.2072546244
C        0.3781629382    0.8631738990   -0.5461446190
C       -0.5391966424    0.4349435849    0.6018632835
C       -0.3987553812   -0.9833580761    1.1087590666
N       -1.5092952125   -1.6421828018    1.0519721233
C        1.7777774035    0.3288414828   -0.7114968509
C        0.9065875130   -0.1084920610   -1.5663691667
H        0.1538362373    1.8882475074   -0.8555870310
H       -0.4127774614    1.1356922299    1.4427210455
H        0.5129795672   -1.4332489274    1.4963478858
H        2.7936387783    0.3610175627   -0.3452419917
H        0.6602333134   -0.7124476880   -2.4268531827
13   
Iteration 10 Energy -340.92501757
C       -2.3859988708   -0.6704899016    0.4936045339
N       -1.9785678968    0.4839183364    0.2060635189
C        0.3780884427    0.8630651195   -0.5458202678
C       -0.5389434640    0.4346397643    0.6021563147
C       -0.3972820466   -0.9837800399    1.1091135423
N       -1.5067617995   -1.6439497326    1.0505326894
C        1.7773984831    0.3280496191   -0.7116894960
C        0.9058636612   -0.1084650790   -1.5667250858
H        0.1535926515    1.8879918605   -0.8555699107
H       -0.4146525090    1.1357300551    1.4428850202
H        0.5146597405   -1.4325157009    1.4975160792
H        2.7929854948    0.3596893592   -0.3447582156
H        0.6590952824   -0.7105256607   -2.4283746140
13   
Iteration 11 Energy -340.92501810
C       -2.3848939638   -0.6735293654    0.4918675615
N       -1.9786416572    0.4813975903    0.2053856588
C        0.3779266780    0.8628073366   -0.5456439569
C       -0.5387354132    0.4335839052    0.6022600440
C       -0.3959356175   -0.9848959586    1.1087290744
N       -1.5046360540   -1.6462360852    1.0492798350
C        1.7774433919    0.3282757135   -0.7122531346
C        0.9056251768   -0.1086227054   -1.5668859746
H        0.1527542077    1.8874804045   -0.8556039451
H       -0.4155067970    1.1349948918    1.4427456287
H        0.5162672549   -1.4325734006    1.4977178834
H        2.7928923794    0.3602120706   -0.3450602940
H        0.6589094589   -0.7091573046   -2.4295875951
