13   
Iteration 1 Energy -340.92257148
C       -1.7783939532    2.5219002842   -0.0755215291
N       -1.0873823723    1.6405100182    0.2915251805
C        0.8276758530    0.3174728497   -0.4136093645
C       -0.2172829442    0.5856466378    0.6908288743
C       -0.9920319576   -0.6753814232    1.0818240849
N       -2.2304037448   -0.8259618916    1.0286987826
C        1.4064139061   -1.0441774582   -0.6793770930
C        0.5578371874   -0.6125947918   -1.5601657590
H        1.4392822754    1.2109448641   -0.5777709254
H        0.3113986862    0.9202874851    1.5955970495
H       -0.3562187946   -1.4980888128    1.4454779688
H        2.0992871001   -1.8001886937   -0.3404507743
H        0.0198187583   -0.7403690678   -2.4870564953
