13   
Iteration 0 Energy -340.92257160
C       -1.7783939532    2.5219002842   -0.0755215291
N       -1.0873823723    1.6405100182    0.2915251805
C        0.8276758530    0.3174728497   -0.4136093645
C       -0.2172829442    0.5856466378    0.6908288743
C       -0.9920319576   -0.6753814232    1.0818240849
N       -2.2304037448   -0.8259618916    1.0286987826
C        1.4064139061   -1.0441774582   -0.6793770930
C        0.5578371874   -0.6125947918   -1.5601657590
H        1.4392822754    1.2109448641   -0.5777709254
H        0.3113986862    0.9202874851    1.5955970495
H       -0.3562187946   -1.4980888128    1.4454779688
H        2.0992871001   -1.8001886937   -0.3404507743
H        0.0198187583   -0.7403690678   -2.4870564953
13   
Iteration 1 Energy -340.92257160
C       -1.7781327029    2.5221279224   -0.0761843379
N       -1.0872633197    1.6406961753    0.2910302392
C        0.8278010285    0.3174582735   -0.4137183806
C       -0.2173242490    0.5857749247    0.6905290453
C       -0.9922539051   -0.6751661501    1.0814522118
N       -2.2306237237   -0.8257072014    1.0281508310
C        1.4065079491   -1.0442393610   -0.6793169676
C        0.5580996256   -0.6126585301   -1.5602682222
H        1.4394910130    1.2108821467   -0.5778287984
H        0.3112346461    0.9204124548    1.5953704175
H       -0.3565523831   -1.4978949281    1.4452479955
H        2.0992861777   -1.8002689754   -0.3402372414
H        0.0202279373   -0.7404543378   -2.4872412337
