13   
Climbing Image - Chain 100 Image 3 Energy  -340.9123320344 (+39.805 kcal/mol) RMSGrad 0.239 eV/Ang
C       -1.5994409724    1.2381132666    0.6953748844
N       -1.8667149003    2.3735391378    0.4103165173
C        1.0168106183    0.2693051562   -0.4115291202
C        0.1094716431    0.3946543046    0.7620978869
C       -0.9147640015   -0.6374091465    1.0629581421
N       -2.0581867720   -0.0417845901    1.0617464407
C        1.3434541033   -1.1160929873   -0.9610258378
C        0.5749605846   -0.3907562510   -1.7032269149
H        1.7798174216    1.0499577812   -0.4641054543
H        0.5611067137    0.8587293558    1.6442283428
H       -0.7988659246   -1.7053405332    1.2547777077
H        1.8530361917   -2.0437297973   -0.7431022441
H       -0.0026166991   -0.2493438456   -2.6060286856
