13   
Iteration 0 Energy -340.91233203
C       -1.5994409724    1.2381132666    0.6953748844
N       -1.8667149003    2.3735391378    0.4103165173
C        1.0168106183    0.2693051562   -0.4115291202
C        0.1094716431    0.3946543046    0.7620978869
C       -0.9147640015   -0.6374091465    1.0629581421
N       -2.0581867720   -0.0417845901    1.0617464407
C        1.3434541033   -1.1160929873   -0.9610258378
C        0.5749605846   -0.3907562510   -1.7032269149
H        1.7798174216    1.0499577812   -0.4641054543
H        0.5611067137    0.8587293558    1.6442283428
H       -0.7988659246   -1.7053405332    1.2547777077
H        1.8530361917   -2.0437297973   -0.7431022441
H       -0.0026166991   -0.2493438456   -2.6060286856
13   
Iteration 1 Energy -340.91258758
C       -1.6086087931    1.2458606584    0.6901100639
N       -1.8734167599    2.3782437998    0.3967470488
C        1.0188974979    0.2654669390   -0.4097446006
C        0.1131184487    0.3879858313    0.7648116208
C       -0.9156553137   -0.6379158591    1.0707260610
N       -2.0613708222   -0.0409613599    1.0688513476
C        1.3489491934   -1.1167949243   -0.9675307441
C        0.5761425103   -0.3893779022   -1.7034768836
H        1.7800812859    1.0478635465   -0.4598309228
H        0.5646731775    0.8514254107    1.6464625068
H       -0.8033191510   -1.7042642042    1.2669016790
H        1.8617146977   -2.0441592854   -0.7574084634
H       -0.0037887307   -0.2437385211   -2.6034985518
13   
Iteration 2 Energy -340.91278592
C       -1.6046094458    1.2465651097    0.6800396909
N       -1.8587518973    2.3768249042    0.3715429659
C        1.0167634798    0.2628574179   -0.4058356989
C        0.1129556475    0.3798007127    0.7702461881
C       -0.9194790902   -0.6408791502    1.0811721030
N       -2.0642424458   -0.0403617234    1.0737106101
C        1.3551168690   -1.1132997283   -0.9748960244
C        0.5724636014   -0.3863063663   -1.7012629618
H        1.7729682390    1.0501638268   -0.4535127740
H        0.5624333589    0.8448789277    1.6515422320
H       -0.8126318118   -1.7055876911    1.2844990251
H        1.8759198954   -2.0385468388   -0.7764413894
H       -0.0130687434   -0.2369032792   -2.5966207432
13   
Iteration 3 Energy -340.91297086
C       -1.5960555309    1.2447226277    0.6649043702
N       -1.8379791553    2.3714066078    0.3353275116
C        1.0155451157    0.2588259654   -0.3981532138
C        0.1153539293    0.3699326481    0.7806909803
C       -0.9241384501   -0.6434645270    1.0916773733
N       -2.0665903883   -0.0388522936    1.0698144505
C        1.3622058588   -1.1078300165   -0.9836997863
C        0.5630929181   -0.3823843793   -1.6940913995
H        1.7648418064    1.0528985492   -0.4449208481
H        0.5600492359    0.8394939699    1.6617093913
H       -0.8252912121   -1.7065971592    1.3055200123
H        1.8953559694   -2.0297612536   -0.8035793023
H       -0.0342597996   -0.2279882123   -2.5805623822
13   
Iteration 4 Energy -340.91313677
C       -1.5806969837    1.2418621935    0.6412863490
N       -1.8090525930    2.3638070731    0.2870035961
C        1.0156853693    0.2539117942   -0.3864223592
C        0.1218082815    0.3585054059    0.7978777232
C       -0.9295036271   -0.6461000890    1.0993634243
N       -2.0679476025   -0.0365486838    1.0473673536
C        1.3671468896   -1.1007433730   -0.9934415048
C        0.5462282935   -0.3772951587   -1.6811003516
H        1.7552403372    1.0570655534   -0.4362966308
H        0.5598064441    0.8351163313    1.6780948983
H       -0.8410290048   -1.7063803956    1.3310984926
H        1.9191337683   -2.0163206530   -0.8390712954
H       -0.0704070746   -0.2180488312   -2.5533075189
13   
Iteration 5 Energy -340.91319389
C       -1.5811795816    1.3131916426    0.5233739169
N       -1.7827014162    2.4368711230    0.1590490040
C        0.9882594368    0.2847460331   -0.4775585648
C        0.1019110079    0.3993396583    0.7121200368
C       -0.9728992152   -0.5833173413    1.0057537672
N       -2.0989358539    0.0449522230    0.9246028225
C        1.3395161740   -1.0719171256   -1.0788008063
C        0.5073763184   -0.3573715525   -1.7623688792
H        1.7211179702    1.0931358495   -0.5418034629
H        0.5457074410    0.8720625209    1.5913646242
H       -0.9075021420   -1.6406875910    1.2574667963
H        1.9177558845   -1.9733131093   -0.9374034132
H       -0.1249252071   -0.2100259914   -2.6254148594
13   
Iteration 6 Energy -340.91319279
C       -1.6453541952    1.6060432658    0.3710287376
N       -1.7542631196    2.7238957924   -0.0470680749
C        0.9122053877    0.3835861784   -0.4291636374
C       -0.0368522247    0.6020212320    0.6960983850
C       -1.1858261284   -0.3020053936    0.9594540752
N       -2.2640893145    0.3888629370    0.7872392050
C        1.2066349024   -1.0154567019   -0.9591548175
C        0.4704878268   -0.2742733487   -1.7201956741
H        1.7015440646    1.1384419891   -0.4725509539
H        0.3823100757    1.0821421920    1.5834526583
H       -1.2008195390   -1.3507207487    1.2521014820
H        1.7094417447   -1.9481561521   -0.7491093399
H       -0.0944029425   -0.1194655416   -2.6275387757
13   
Iteration 7 Energy -340.91319392
C       -1.6477614236    1.4129307570    0.4309514155
N       -1.8307396505    2.5430655950    0.0768082567
C        0.9177211044    0.3553544198   -0.5528910208
C        0.0210509703    0.4748297614    0.6286711168
C       -1.0696561292   -0.4953110719    0.9041104210
N       -2.1864077077    0.1485216892    0.8161572041
C        1.2577587217   -1.0025341975   -1.1575237688
C        0.4422084646   -0.2736846643   -1.8461575859
H        1.6615772252    1.1545469179   -0.6047243714
H        0.4634817153    0.9337414719    1.5159378930
H       -1.0209301658   -1.5553737345    1.1482540548
H        1.8228195677   -1.9121448039   -1.0154758956
H       -0.1788919219   -0.1146880643   -2.7152698500
13   
Iteration 8 Energy -340.91319412
C       -1.6472415797    1.4128124547    0.4291732690
N       -1.8295988413    2.5423587659    0.0730345788
C        0.9182793233    0.3546382656   -0.5518739285
C        0.0214220883    0.4742337565    0.6294031463
C       -1.0699551107   -0.4951917070    0.9048196690
N       -2.1863671571    0.1489800390    0.8154553247
C        1.2580354235   -1.0030636453   -1.1572221642
C        0.4425002796   -0.2737554405   -1.8453288176
H        1.6622236595    1.1537522930   -0.6036132380
H        0.4631583356    0.9339579479    1.5165654949
H       -1.0219043066   -1.5549375719    1.1505138717
H        1.8232907531   -1.9126314441   -1.0156655199
H       -0.1787332530   -0.1138014049   -2.7141656167
13   
Iteration 9 Energy -340.91319412
C       -1.6380727906    1.4417515821    0.4299019840
N       -1.8146358556    2.5694772170    0.0651100487
C        0.9211934386    0.3630502440   -0.5447619645
C        0.0255446606    0.4958174511    0.6360588813
C       -1.0708245656   -0.4657402024    0.9192474075
N       -2.1838066851    0.1838072701    0.8259733033
C        1.2537540806   -1.0007446458   -1.1403049238
C        0.4416530067   -0.2723411260   -1.8333979766
H        1.6691990760    1.1579431294   -0.6026389482
H        0.4701944136    0.9596672902    1.5196194105
H       -1.0283560558   -1.5239494676    1.1724596209
H        1.8143592986   -1.9121801466   -0.9923978634
H       -0.1790881536   -0.1155225176   -2.7031550218
