13   
IRC reactant Energy -341.01158747
C       -3.8425880230    0.6633633232    1.2003201600
N       -4.4614685495    1.6268661020    1.4426682009
C        0.3417350672    0.2892819769    0.8663363526
C       -1.0056490664    0.4405282800    0.9789502163
C       -1.9770281897   -0.6160981144    0.8148559423
N       -3.2680664092   -0.5091010832    0.9165667993
C        2.3944316237   -0.9859502004    0.4755969732
C        1.0724445231   -0.9330510586    0.5656120753
H        0.9606093841    1.1710167477    1.0147252171
H       -1.3980368283    1.4276985025    1.2103708953
H       -1.6274959825   -1.6203733077    0.5808517425
H        3.1521177852   -1.7311508641    0.2738207132
H        0.5090089990   -1.8577936472    0.4049897761
