13   
Iteration 0 Energy -341.01158747
C       -3.8425880230    0.6633633232    1.2003201600
N       -4.4614685495    1.6268661020    1.4426682009
C        0.3417350672    0.2892819769    0.8663363526
C       -1.0056490664    0.4405282800    0.9789502163
C       -1.9770281897   -0.6160981144    0.8148559423
N       -3.2680664092   -0.5091010832    0.9165667993
C        2.3944316237   -0.9859502004    0.4755969732
C        1.0724445231   -0.9330510586    0.5656120753
H        0.9606093841    1.1710167477    1.0147252171
H       -1.3980368283    1.4276985025    1.2103708953
H       -1.6274959825   -1.6203733077    0.5808517425
H        3.1521177852   -1.7311508641    0.2738207132
H        0.5090089990   -1.8577936472    0.4049897761
13   
Iteration 1 Energy -341.01158751
C       -3.8429267359    0.6632029354    1.1996566241
N       -4.4616507573    1.6270170459    1.4411975762
C        0.3413817442    0.2886506071    0.8666115975
C       -1.0060266021    0.4395442127    0.9794058135
C       -1.9775703106   -0.6169561279    0.8153343644
N       -3.2686072540   -0.5095761121    0.9167810306
C        2.3947337199   -0.9847552517    0.4753067817
C        1.0727241063   -0.9331925253    0.5655099459
H        0.9599167060    1.1706290744    1.0151270412
H       -1.3984396747    1.4266602971    1.2109647361
H       -1.6282444659   -1.6213327717    0.5815081698
H        3.1531648278   -1.7291236411    0.2731405411
H        0.5100152107   -1.8583029781    0.4046104358
