3    
Climbing Image - Chain 44 Image 4 Energy   -92.2460199326 (+67.796 kcal/mol) RMSGrad 0.042 eV/Ang
C       -0.0349719699   -0.6446335193    0.0000000000
N       -0.6868376923    0.3415567153   -0.0000000000
H        0.7218096622    0.3030768040   -0.0000000000
