3    
Iteration 0 Energy -92.24601993
C       -0.0349719699   -0.6446335193    0.0000000000
N       -0.6868376923    0.3415567153    0.0000000000
H        0.7218096622    0.3030768040    0.0000000000
3    
Iteration 1 Energy -92.24601961
C       -0.0342854888   -0.6460063171    0.0024399437
N       -0.6862452666    0.3407364970   -0.0029873651
H        0.7207238318    0.3040179278    0.0033769540
3    
Iteration 2 Energy -92.24601961
C       -0.0343280380   -0.6460205562    0.0024321588
N       -0.6862156347    0.3407715235   -0.0029512417
H        0.7207497308    0.3039581289    0.0033649656
