13   
Iteration 11 Energy -340.92501810
C       -2.3848921941   -0.6735323328    0.4918687733
N       -1.9786418247    0.4813952373    0.2053864377
C        0.3779257077    0.8628078718   -0.5456442530
C       -0.5387352800    0.4335837616    0.6022604853
C       -0.3959331298   -0.9848956538    1.1087301053
N       -1.5046325845   -1.6462374896    1.0492813210
C        1.7774422108    0.3282760019   -0.7122549931
C        0.9056229566   -0.1086220457   -1.5668871207
H        0.1527529397    1.8874810551   -0.8556037912
H       -0.4155072748    1.1349955800    1.4427454619
H        0.5162705161   -1.4325715645    1.4977190558
H        2.7928915836    0.3602120410   -0.3450630192
H        0.6589062565   -0.7091563032   -2.4295888235
13   
Iteration 15 Energy -340.92501854
C       -2.5549364623    0.8969849932    0.2094102711
N       -1.5262965327    1.6144553461    0.1181506858
C        0.7139564209    0.5931345550   -0.3303047182
C       -0.4527389465    0.7228116795    0.6519674321
C       -1.2217515202   -0.5370992150    0.9831810329
N       -2.4834238588   -0.4299748615    0.7243566181
C        1.5694505013   -0.6448348681   -0.4179624578
C        0.7525018394   -0.4572923280   -1.4073047160
H        1.1617735999    1.5715903472   -0.5273175483
H       -0.0879474430    1.1833866558    1.5838414033
H       -0.8001129440   -1.4477538081    1.4036014057
H        2.3499065959   -1.2239713656    0.0537343801
H        0.3515205844   -0.7634966888   -2.3618967103
