13   
Iteration 17 Energy -340.92393753
C       -2.3512823304    0.3338263976   -1.2800174658
N       -1.5404755989    0.4157079395   -0.4285791128
C        0.8903165662    0.2197107493   -0.0881086187
C       -0.5034642394    0.4937973628    0.5334232283
C       -0.7365462701   -0.4664247233    1.7077978135
N       -1.6794398204   -1.2773171448    1.8211766832
C        1.1107128880   -0.8393379853   -1.1234051966
C        1.1546263155    0.3833045105   -1.5536931737
H        1.6756249501    0.4443167151    0.6431969668
H       -0.4997072882    1.5118559377    0.9490264490
H        0.0369364633   -0.4087082658    2.4907403716
H        1.1672099771   -1.9008685658   -1.3110409564
H        1.2754883870    1.0901370722   -2.3605169885
13   
Iteration 16 Energy -340.92393750
C       -2.3522039921    0.3375937863   -1.2791033436
N       -1.5403324133    0.4175854866   -0.4285278131
C        0.8905725084    0.2209108550   -0.0880553579
C       -0.5031721695    0.4942119492    0.5336219367
C       -0.7365519629   -0.4676566616    1.7065805897
N       -1.6793812937   -1.2788882745    1.8182040849
C        1.1118223401   -0.8399222191   -1.1213462304
C        1.1538570592    0.3818492023   -1.5542656034
H        1.6761084613    0.4479614768    0.6422200491
H       -0.4994577427    1.5117623502    0.9504300969
H        0.0366473019   -0.4112257284    2.4898981224
H        1.1694258281   -1.9017000720   -1.3072763786
H        1.2726660751    1.0875178493   -2.3623801528
13   
Iteration 15 Energy -340.92393735
C       -2.3529654211    0.3385878863   -1.2784186324
N       -1.5404638114    0.4175109588   -0.4283480748
C        0.8905642192    0.2202645704   -0.0880010907
C       -0.5029193131    0.4939933315    0.5334820162
C       -0.7366780185   -0.4674508785    1.7068223488
N       -1.6780290393   -1.2805815756    1.8169825246
C        1.1119705816   -0.8401734675   -1.1215852034
C        1.1538752596    0.3816473268   -1.5543714575
H        1.6762404233    0.4475732586    0.6420442864
H       -0.4988616113    1.5117597477    0.9498167883
H        0.0349634557   -0.4089888363    2.4915112725
H        1.1697295402   -1.9019031722   -1.3078412835
H        1.2725737352    1.0877608501   -2.3620934944
13   
Iteration 14 Energy -340.92393685
C       -2.3535728162    0.3413078980   -1.2777938682
N       -1.5403347947    0.4176873009   -0.4281987355
C        0.8906831137    0.2196884835   -0.0880090495
C       -0.5026792011    0.4938407155    0.5334906676
C       -0.7366163657   -0.4674186609    1.7069746871
N       -1.6742283696   -1.2852963036    1.8137393244
C        1.1117371883   -0.8406598128   -1.1216617064
C        1.1536647523    0.3811654110   -1.5544886208
H        1.6766223530    0.4475219146    0.6415960107
H       -0.4980592146    1.5116675780    0.9496665246
H        0.0315047474   -0.4043570095    2.4947550400
H        1.1691633665   -1.9024262680   -1.3078251273
H        1.2721152408    1.0872787534   -2.3622451467
13   
Iteration 13 Energy -340.92393597
C       -2.3535547054    0.3428793240   -1.2778520073
N       -1.5400624354    0.4173474559   -0.4283245288
C        0.8906754244    0.2190796417   -0.0881058112
C       -0.5027943533    0.4938887767    0.5335603336
C       -0.7362956789   -0.4670401912    1.7072887951
N       -1.6696407319   -1.2901244120    1.8114873740
C        1.1108448903   -0.8409236130   -1.1222781857
C        1.1537935807    0.3811743970   -1.5542895858
H        1.6766613816    0.4460133183    0.6417264724
H       -0.4978369492    1.5117729220    0.9494987323
H        0.0283321844   -0.3986990329    2.4980369487
H        1.1670867724   -1.9026770605   -1.3087751652
H        1.2727906204    1.0873084741   -2.3619733721
13   
Iteration 12 Energy -340.92393503
C       -2.3531068632    0.3444937041   -1.2781887251
N       -1.5397315820    0.4177244412   -0.4284469005
C        0.8907799659    0.2196413449   -0.0882273898
C       -0.5030060294    0.4944032564    0.5338736334
C       -0.7357557625   -0.4672380935    1.7069759819
N       -1.6660388452   -1.2940930726    1.8089194806
C        1.1099010797   -0.8410784610   -1.1219447715
C        1.1536947449    0.3808947068   -1.5542508593
H        1.6767991602    0.4460315486    0.6417095927
H       -0.4981909448    1.5119919448    0.9503546614
H        0.0266199092   -0.3959742693    2.4996681496
H        1.1650512887   -1.9029792470   -1.3077795652
H        1.2729838786    1.0861821965   -2.3626632883
13   
Iteration 11 Energy -340.92393319
C       -2.3521520505    0.3447529663   -1.2790831792
N       -1.5396424451    0.4185112222   -0.4285798456
C        0.8906375068    0.2205498245   -0.0882791818
C       -0.5035173046    0.4957218557    0.5342802606
C       -0.7348442791   -0.4671380670    1.7063596914
N       -1.6614729035   -1.2983686553    1.8067382078
C        1.1084231306   -0.8409539538   -1.1215877987
C        1.1537094166    0.3809100595   -1.5540030268
H        1.6762859290    0.4443726427    0.6427871180
H       -0.4991733976    1.5130558203    0.9511465181
H        0.0258261853   -0.3933695562    2.5004758685
H        1.1619029263   -1.9030031581   -1.3068662437
H        1.2740172859    1.0849589993   -2.3633883887
13   
Iteration 10 Energy -340.92392373
C       -2.3511091409    0.3502843452   -1.2787327978
N       -1.5412496827    0.4271113461   -0.4260634550
C        0.8904432735    0.2263532666   -0.0887428149
C       -0.5039065513    0.5002698284    0.5361869517
C       -0.7328022242   -0.4699475077    1.7021405859
N       -1.6525686845   -1.3101039657    1.7927154827
C        1.1072237886   -0.8415082094   -1.1158442926
C        1.1517870098    0.3777485085   -1.5555012177
H        1.6756292681    0.4501318147    0.6427291453
H       -0.4995656856    1.5158724755    0.9568332082
H        0.0244873502   -0.3966781052    2.4995373480
H        1.1600951307   -1.9046861527   -1.2945345793
H        1.2715361483    1.0751523557   -2.3707235645
13   
Iteration 9 Energy -340.92389261
C       -2.3457204582    0.3503731227   -1.2804822306
N       -1.5434329018    0.4400188338   -0.4218342162
C        0.8903274056    0.2303618038   -0.0879641465
C       -0.5026819299    0.5054579550    0.5380400360
C       -0.7315745776   -0.4718158006    1.6980241824
N       -1.6428238319   -1.3227413341    1.7749799463
C        1.1057989094   -0.8422025400   -1.1096456250
C        1.1464171615    0.3747696723   -1.5566175717
H        1.6759867487    0.4537780282    0.6432675047
H       -0.4944531527    1.5199292727    0.9615199315
H        0.0201600287   -0.3984445773    2.5004722610
H        1.1587546471   -1.9062804243   -1.2829807681
H        1.2632419508    1.0667959878   -2.3767793038
13   
Iteration 8 Energy -340.92381920
C       -2.3357889077    0.3631112052   -1.2811051763
N       -1.5462564291    0.4674272271   -0.4117382171
C        0.8892057951    0.2353099970   -0.0904679775
C       -0.5000088666    0.5100485114    0.5432543566
C       -0.7350771101   -0.4801406005    1.6920416633
N       -1.6382678934   -1.3411192513    1.7474013504
C        1.1113504901   -0.8473532199   -1.0995550751
C        1.1356910684    0.3636618115   -1.5631644094
H        1.6788808627    0.4807203181    0.6292842811
H       -0.4809858179    1.5187599742    0.9798437145
H        0.0055616017   -0.4067375673    2.5045476239
H        1.1745887276   -1.9129271055   -1.2602119009
H        1.2411064791    1.0492387000   -2.3901302333
13   
Iteration 7 Energy -340.92374867
C       -2.3171348013    0.3300250807   -1.2917385155
N       -1.5428358187    0.4617832485   -0.4119831365
C        0.8902109343    0.2263795311   -0.0885708478
C       -0.4975354226    0.5076381902    0.5431114193
C       -0.7358655249   -0.4729065702    1.7003743775
N       -1.6372570748   -1.3354332137    1.7549521986
C        1.1010164912   -0.8452958291   -1.1103596731
C        1.1351120442    0.3712044683   -1.5599148960
H        1.6836196654    0.4640147523    0.6300536812
H       -0.4733833296    1.5181848747    0.9750637072
H       -0.0042260514   -0.3854253012    2.5198027336
H        1.1534148601   -1.9093747934   -1.2849481379
H        1.2448640282    1.0692055618   -2.3758429105
13   
Iteration 6 Energy -340.92355973
C       -2.2835429764    0.3466672252   -1.3103211315
N       -1.5296204151    0.4829090503   -0.4136614976
C        0.8920843112    0.2299092263   -0.0900448849
C       -0.4943639438    0.5107707935    0.5517999137
C       -0.7423553681   -0.4837066234    1.6957159530
N       -1.6365273228   -1.3534184909    1.7451765995
C        1.1010479912   -0.8523216046   -1.1029080970
C        1.1181392671    0.3584801759   -1.5660863332
H        1.6936666923    0.5018604472    0.6057470063
H       -0.4646948778    1.5090039815    1.0106170271
H       -0.0231188546   -0.3881418187    2.5255570704
H        1.1605896942   -1.9177322992   -1.2666892180
H        1.2086958025    1.0557199370   -2.3849024077
13   
Iteration 5 Energy -340.92292611
C       -2.2433842753    0.2097588884   -1.3364929166
N       -1.5256193569    0.4192922973   -0.4248977978
C        0.8824652731    0.1966504831   -0.0939495725
C       -0.5031986195    0.4999142214    0.5483980707
C       -0.7458503645   -0.4437610228    1.7364889678
N       -1.6279865803   -1.3198390329    1.8433765003
C        1.0523242427   -0.8330549206   -1.1674587925
C        1.1604422393    0.3985856178   -1.5537817581
H        1.6815366024    0.4034740215    0.6249762246
H       -0.4756591435    1.5089726434    0.9822015922
H       -0.0247790355   -0.2947741610    2.5574878905
H        1.0514684092   -1.8877355846   -1.3969655451
H        1.3182406087    1.1425165489   -2.3193828633
13   
Iteration 4 Energy -340.92254959
C       -2.2369302341    0.5406205048   -1.3209111661
N       -1.4919714851    0.5905869575   -0.4089568246
C        0.9096392007    0.3043503096   -0.0931325701
C       -0.4787985046    0.5316252476    0.5795173960
C       -0.7468889485   -0.5559300248    1.6285853464
N       -1.6241047350   -1.4427330571    1.5885599007
C        1.1285568531   -0.8744661378   -0.9957729980
C        1.0425040438    0.2754984544   -1.5850522653
H        1.7225217279    0.7295602419    0.5027366868
H       -0.4502695565    1.4739070529    1.1416533751
H       -0.0478225708   -0.5163972293    2.4806962421
H        1.2446597585   -1.9461663057   -1.0457622814
H        1.0289044505    0.8895439858   -2.4721608417
13   
Iteration 3 Energy -340.92206909
C       -2.3024473884    0.9155089192   -1.2028120255
N       -1.5017974378    0.7751518763   -0.3494571615
C        0.9054280789    0.4000265441   -0.1217719573
C       -0.4679655857    0.5556711690    0.5985665353
C       -0.7486512220   -0.6616221952    1.4872140397
N       -1.6354339180   -1.5245054854    1.3199740947
C        1.2616743809   -0.8832938880   -0.8209118244
C        0.9494871383    0.1098155137   -1.5904070463
H        1.6790817169    1.0300896473    0.3262234382
H       -0.4146363758    1.4174137782    1.2757460735
H       -0.0497498353   -0.7531864633    2.3348182678
H        1.5490994562   -1.9151923909   -0.6900273495
H        0.7759109920    0.5341229751   -2.5671550848
13   
Iteration 2 Energy -340.92182697
C       -2.3500921546    1.0721121979   -1.1159544303
N       -1.5199048467    0.8495488374   -0.3095323453
C        0.8944372403    0.4383443981   -0.1434443785
C       -0.4680023698    0.5632066163    0.6020808142
C       -0.7468738734   -0.7029524494    1.4188060193
N       -1.6421303850   -1.5442403322    1.1942363280
C        1.3263067997   -0.8712763159   -0.7458869430
C        0.9238802439    0.0289319319   -1.5843928395
H        1.6367301185    1.1463019093    0.2359363378
H       -0.3978619982    1.3892624214    1.3208277313
H       -0.0422720110   -0.8573010318    2.2522932260
H        1.6908085583   -1.8654387738   -0.5373945858
H        0.6949746780    0.3535005908   -2.5875749342
13   
Iteration 1 Energy -340.92172997
C       -2.3736403800    1.1286936645   -1.0771431446
N       -1.5308895539    0.8765503026   -0.2927100989
C        0.8904718135    0.4503311813   -0.1517473721
C       -0.4695700761    0.5662023947    0.6005436787
C       -0.7481989891   -0.7170849619    1.3903574973
N       -1.6437161082   -1.5554148305    1.1542013439
C        1.3515884725   -0.8644712752   -0.7193028278
C        0.9183610664   -0.0009881570   -1.5807792743
H        1.6208000939    1.1817515109    0.2058758938
H       -0.3926821060    1.3815132264    1.3308076319
H       -0.0380168700   -0.8909352078    2.2146679288
H        1.7432333630   -1.8421179290   -0.4834756034
H        0.6722592738    0.2859700809   -2.5912956533
13   
Iteration 0 Energy -340.92170113
C       -2.3811622881    1.1404937539   -1.0658106766
N       -1.5346335424    0.8822458517   -0.2874316282
C        0.8898828806    0.4516697768   -0.1534611811
C       -0.4699355074    0.5669174415    0.6002183354
C       -0.7482589382   -0.7194205684    1.3848847842
N       -1.6459603934   -1.5535088504    1.1418011817
C        1.3595950816   -0.8627964053   -0.7142997140
C        0.9168248623   -0.0084395617   -1.5799759719
H        1.6173728850    1.1880787070    0.1996994901
H       -0.3913214135    1.3806514820    1.3320495900
H       -0.0373586853   -0.8999819703    2.2071138890
H        1.7593245342   -1.8358769910   -0.4731658160
H        0.6656305248    0.2699673343   -2.5916222826
13   
Iteration 20 Energy -340.92170037
C       -2.3811590832    1.1407256977   -1.0657352448
N       -1.5346782572    0.8823439282   -0.2873485656
C        0.8899435094    0.4517539745   -0.1534755861
C       -0.4699221658    0.5669256167    0.6002129926
C       -0.7482824848   -0.7194851832    1.3847530679
N       -1.6460372585   -1.5535099877    1.1416158730
C        1.3598231751   -0.8626882295   -0.7141808353
C        0.9168379363   -0.0085440706   -1.5799570206
H        1.6174285311    1.1881978587    0.1996184349
H       -0.3913185123    1.3806516862    1.3320540016
H       -0.0373083216   -0.9002077442    2.2068829695
H        1.7594405133   -1.8357701599   -0.4728677295
H        0.6652324182    0.2696066130   -2.5915723575
13   
Iteration 19 Energy -340.92169981
C       -2.3811557093    1.1408813433   -1.0656859642
N       -1.5347128282    0.8824094016   -0.2872868264
C        0.8899895865    0.4518166170   -0.1534776033
C       -0.4699173056    0.5669265854    0.6002111157
C       -0.7483009621   -0.7195328507    1.3846622510
N       -1.6460891769   -1.5535193836    1.1414823225
C        1.3599900706   -0.8626007843   -0.7140955226
C        0.9168528747   -0.0086089971   -1.5799440036
H        1.6175219231    1.1882318796    0.1995810025
H       -0.3913452075    1.3806884357    1.3320161348
H       -0.0372647671   -0.9003656648    2.2067151820
H        1.7595013317   -1.8356937457   -0.4726446960
H        0.6649301700    0.2693671637   -2.5915333924
13   
Iteration 18 Energy -340.92169939
C       -2.3811540568    1.1409849537   -1.0656525592
N       -1.5347378515    0.8824529751   -0.2872395739
C        0.8900225184    0.4518638388   -0.1534730296
C       -0.4699169623    0.5669233560    0.6002122888
C       -0.7483140334   -0.7195677978    1.3846012541
N       -1.6461235498   -1.5535315047    1.1413886337
C        1.3601101457   -0.8625326438   -0.7140341019
C        0.9168659014   -0.0086485668   -1.5799349744
H        1.6176211875    1.1882161575    0.1995586591
H       -0.3913855637    1.3807393673    1.3319589888
H       -0.0372305271   -0.9004730059    2.2065934223
H        1.7595335515   -1.8356361235   -0.4724814730
H        0.6647092399    0.2692089942   -2.5914975349
13   
Iteration 17 Energy -340.92169908
C       -2.3811549920    1.1410527971   -1.0656290504
N       -1.5347546443    0.8824815224   -0.2872025803
C        0.8900464255    0.4519012439   -0.1534663703
C       -0.4699175716    0.5669194592    0.6002154256
C       -0.7483202919   -0.7195920713    1.3845619091
N       -1.6461436280   -1.5535427582    1.1413259102
C        1.3601964517   -0.8624810392   -0.7139901985
C        0.9168753898   -0.0086713809   -1.5799307701
H        1.6176998108    1.1881725784    0.1995350290
H       -0.3914268334    1.3807887310    1.3318967009
H       -0.0372061612   -0.9005419148    2.2065022727
H        1.7595514339   -1.8355874807   -0.4723657116
H        0.6645546108    0.2691003132   -2.5914525661
13   
Iteration 16 Energy -340.92169885
C       -2.3811584363    1.1410947601   -1.0656119435
N       -1.5347651158    0.8824992425   -0.2871738559
C        0.8900646775    0.4519323520   -0.1534607545
C       -0.4699171010    0.5669170384    0.6002191389
C       -0.7483191998   -0.7196071503    1.3845384707
N       -1.6461514455   -1.5535514708    1.1412875105
C        1.3602583648   -0.8624431081   -0.7139599632
C        0.9168808539   -0.0086829530   -1.5799323990
H        1.6177453894    1.1881138790    0.1995033776
H       -0.3914622271    1.3808290583    1.3318360308
H       -0.0371903210   -0.9005809763    2.2064314570
H        1.7595611999   -1.8355403794   -0.4722882667
H        0.6644533610    0.2690197077   -2.5913888026
13   
Iteration 15 Energy -340.92169867
C       -2.3811634536    1.1411180295   -1.0655997332
N       -1.5347713244    0.8825092206   -0.2871529563
C        0.8900788217    0.4519580567   -0.1534577572
C       -0.4699153850    0.5669169296    0.6002220011
C       -0.7483126438   -0.7196147970    1.3845261015
N       -1.6461503358   -1.5535571039    1.1412671287
C        1.3603017113   -0.8624165925   -0.7139405586
C        0.9168826415   -0.0086874783   -1.5799393413
H        1.6177597884    1.1880523426    0.1994661509
H       -0.3914882261    1.3808571545    1.3317830510
H       -0.0371806052   -0.9005985643    2.2063766372
H        1.7595658240   -1.8354938685   -0.4722406061
H        0.6643931871    0.2689566711   -2.5913101178
13   
Iteration 14 Energy -340.92169846
C       -2.3811737667    1.1411205449   -1.0655880909
N       -1.5347732250    0.8825099556   -0.2871339929
C        0.8900924309    0.4519860811   -0.1534581350
C       -0.4699083819    0.5669170876    0.6002273640
C       -0.7482920383   -0.7196146606    1.3845259043
N       -1.6461329724   -1.5535616002    1.1412678146
C        1.3603339406   -0.8624000880   -0.7139318057
C        0.9168783287   -0.0086813601   -1.5799592489
H        1.6177264870    1.1879621750    0.1993969688
H       -0.3915137217    1.3808867406    1.3317121478
H       -0.0371776166   -0.9005874193    2.2063246197
H        1.7595623145   -1.8354258284   -0.4722285001
H        0.6643782209    0.2688883720   -2.5911550457
13   
Iteration 13 Energy -340.92166061
C       -2.3829687752    1.1554981029   -1.0575591496
N       -1.5353269671    0.8913897638   -0.2824108177
C        0.8880354885    0.4554795010   -0.1566621927
C       -0.4697002484    0.5670595655    0.6008670196
C       -0.7496594486   -0.7240675200    1.3774409288
N       -1.6529290539   -1.5520795143    1.1345258887
C        1.3672929511   -0.8601083305   -0.7067614729
C        0.9132980026   -0.0183129661   -1.5788195344
H        1.6104455911    1.2020727482    0.1858004899
H       -0.3878457510    1.3746040605    1.3392574387
H       -0.0350258711   -0.9134926090    2.1945251620
H        1.7780466781   -1.8266968899   -0.4579142406
H        0.6563374038    0.2486540880   -2.5922895199
13   
Iteration 12 Energy -340.92164459
C       -2.3838383587    1.1616219127   -1.0539109132
N       -1.5354514744    0.8953881158   -0.2803535684
C        0.8868604451    0.4569125680   -0.1581356305
C       -0.4696470277    0.5670689302    0.6012216711
C       -0.7502495815   -0.7260235540    1.3744117387
N       -1.6559540788   -1.5514178005    1.1319239322
C        1.3699509646   -0.8592898104   -0.7036611989
C        0.9115885956   -0.0226040079   -1.5782733453
H        1.6068593153    1.2083200748    0.1795156642
H       -0.3861952448    1.3717418702    1.3426594503
H       -0.0340994643   -0.9189965455    2.1894584966
H        1.7864782873   -1.8227534026   -0.4519616445
H        0.6536976221    0.2400316492   -2.5928946523
13   
Iteration 11 Energy -340.92163159
C       -2.3846217585    1.1667066797   -1.0506700301
N       -1.5354789545    0.8987528910   -0.2785112532
C        0.8857459775    0.4581232712   -0.1593449474
C       -0.4695602170    0.5669127930    0.6016898738
C       -0.7506763409   -0.7277161824    1.3719273280
N       -1.6584914353   -1.5509131982    1.1299168468
C        1.3720534040   -0.8587302258   -0.7010802185
C        0.9100914386   -0.0261720618   -1.5777392652
H        1.6037484927    1.2133283324    0.1738301971
H       -0.3850401864    1.3696717342    1.3450855362
H       -0.0334339224   -0.9234749446    2.1853093412
H        1.7937306070   -1.8193815612   -0.4473081436
H        0.6519328953    0.2328924725   -2.5931052650
13   
Iteration 10 Energy -340.92161689
C       -2.3854531347    1.1728796601   -1.0469110662
N       -1.5357333499    0.9022828560   -0.2762275642
C        0.8849412464    0.4596728494   -0.1606000043
C       -0.4693458695    0.5666656810    0.6021683475
C       -0.7511637782   -0.7296483817    1.3689824006
N       -1.6613532935   -1.5503136406    1.1271191429
C        1.3753140474   -0.8576839977   -0.6981099374
C        0.9087296910   -0.0301146007   -1.5771117089
H        1.6008503607    1.2185724975    0.1676027630
H       -0.3839769366    1.3677841995    1.3471585539
H       -0.0327934407   -0.9287605405    2.1803756465
H        1.8015638488   -1.8154916594   -0.4417092039
H        0.6484206088    0.2241550772   -2.5927373695
13   
Iteration 9 Energy -340.92161078
C       -2.3857738467    1.1755057458   -1.0453633702
N       -1.5359214904    0.9035804566   -0.2752388241
C        0.8847964139    0.4603602022   -0.1610581443
C       -0.4692135905    0.5665325618    0.6023408947
C       -0.7513592821   -0.7304286772    1.3677592705
N       -1.6624938235   -1.5500649521    1.1258029814
C        1.3769489113   -0.8571132338   -0.6969147884
C        0.9083133906   -0.0316458745   -1.5768552076
H        1.5999377605    1.2205047513    0.1651896111
H       -0.3836472740    1.3672083814    1.3477208131
H       -0.0325987711   -0.9309414748    2.1783378008
H        1.8045565659   -1.8139192801   -0.4393635999
H        0.6464550361    0.2204213935   -2.5923574370
13   
Iteration 8 Energy -340.92160708
C       -2.3859781031    1.1773035045   -1.0443715650
N       -1.5361131523    0.9042530713   -0.2746594364
C        0.8848204532    0.4607538838   -0.1613689659
C       -0.4691188043    0.5664912918    0.6023500232
C       -0.7515338524   -0.7308665891    1.3670021944
N       -1.6632283510   -1.5498170312    1.1248128714
C        1.3781661303   -0.8566727722   -0.6962111011
C        0.9081301708   -0.0326281397   -1.5767338502
H        1.5993997545    1.2218578014    0.1638701882
H       -0.3832968106    1.3666734106    1.3482343288
H       -0.0325431996   -0.9323602710    2.1771317368
H        1.8064163353   -1.8129645887   -0.4378115267
H        0.6448794293    0.2179764286   -2.5922448975
13   
Iteration 7 Energy -340.92160401
C       -2.3861129061    1.1787436693   -1.0436702242
N       -1.5363447536    0.9047319356   -0.2742165858
C        0.8849577913    0.4611111043   -0.1615884695
C       -0.4690763561    0.5665093050    0.6022695608
C       -0.7516937660   -0.7311939001    1.3663676568
N       -1.6637842338   -1.5496289189    1.1239005560
C        1.3793295482   -0.8561501606   -0.6956376859
C        0.9080844605   -0.0333644893   -1.5766671879
H        1.5993081883    1.2227069258    0.1631285475
H       -0.3830669914    1.3663213795    1.3485403429
H       -0.0324258000   -0.9335556204    2.1760657580
H        1.8076603450   -1.8121840322   -0.4363566662
H        0.6431644739    0.2159528020   -2.5921356025
13   
Iteration 6 Energy -340.92160076
C       -2.3862797173    1.1801014118   -1.0429998597
N       -1.5362879719    0.9058615557   -0.2739378641
C        0.8846950375    0.4613739703   -0.1620189334
C       -0.4690730923    0.5667208594    0.6021887383
C       -0.7519339819   -0.7315904557    1.3655585004
N       -1.6645262141   -1.5494527322    1.1234170788
C        1.3797963609   -0.8559702507   -0.6948714068
C        0.9076945815   -0.0344863442   -1.5765833482
H        1.5979036433    1.2249333042    0.1617289684
H       -0.3821944022    1.3648588514    1.3502680425
H       -0.0320630718   -0.9349203181    2.1746671616
H        1.8095569853   -1.8112674183   -0.4347402889
H        0.6427118431    0.2138375664   -2.5926767890
13   
Iteration 5 Energy -340.92159810
C       -2.3865556974    1.1809466408   -1.0421117628
N       -1.5362461217    0.9066582393   -0.2734050459
C        0.8842289159    0.4617399065   -0.1623125710
C       -0.4691476319    0.5665393106    0.6023977507
C       -0.7519660180   -0.7320957746    1.3651011577
N       -1.6650640214   -1.5495696457    1.1232272190
C        1.3800048485   -0.8557914287   -0.6943110025
C        0.9071566433   -0.0351871055   -1.5764824712
H        1.5979841889    1.2247877408    0.1607048272
H       -0.3824726000    1.3653341723    1.3497283664
H       -0.0319016734   -0.9357789120    2.1738329464
H        1.8112899573   -1.8102074101   -0.4337907406
H        0.6426892099    0.2126242663   -2.5925786735
13   
Iteration 4 Energy -340.92159477
C       -2.3866041737    1.1817723535   -1.0417196058
N       -1.5359498430    0.9073063048   -0.2734210258
C        0.8840327589    0.4615862679   -0.1625739157
C       -0.4689954176    0.5665291823    0.6025629155
C       -0.7522523753   -0.7320942726    1.3648965258
N       -1.6656643249   -1.5491242663    1.1234159846
C        1.3795123770   -0.8566911520   -0.6939202561
C        0.9068250546   -0.0361792557   -1.5762130160
H        1.5955937841    1.2281246608    0.1576142253
H       -0.3815616408    1.3629507470    1.3524165809
H       -0.0321364457   -0.9360633858    2.1736156013
H        1.8129990549   -1.8103085664   -0.4338388307
H        0.6442011914    0.2121913824   -2.5928351833
13   
Iteration 3 Energy -340.92151103
C       -2.3916259481    1.2235255299   -1.0166519277
N       -1.5390419901    0.9283008671   -0.2582929565
C        0.8792822485    0.4709593527   -0.1715412017
C       -0.4679305443    0.5654725035    0.6041422916
C       -0.7559820003   -0.7440518155    1.3458414839
N       -1.6847968340   -1.5435581217    1.1040617062
C        1.4040832720   -0.8467989123   -0.6756102449
C        0.8991713152   -0.0622530501   -1.5726302287
H        1.5766522635    1.2608960575    0.1214489097
H       -0.3725252277    1.3495719392    1.3660135900
H       -0.0279940809   -0.9716333552    2.1409983599
H        1.8643497491   -1.7822172483   -0.3962347559
H        0.6163577769    0.1517862531   -2.5915450259
13   
Iteration 2 Energy -340.92144991
C       -2.3947132907    1.2602732441   -0.9945821639
N       -1.5403893754    0.9512173381   -0.2436821279
C        0.8727373946    0.4796434502   -0.1806899858
C       -0.4671614026    0.5649887315    0.6064740487
C       -0.7598159680   -0.7552029258    1.3270600184
N       -1.7042013465   -1.5374375495    1.0901959393
C        1.4232370564   -0.8387563534   -0.6568092317
C        0.8905729156   -0.0891314486   -1.5675334796
H        1.5523247949    1.2962340822    0.0795472531
H       -0.3626836568    1.3321317881    1.3844816861
H       -0.0219212090   -1.0057104949    2.1061372531
H        1.9145404108   -1.7532210071   -0.3611409759
H        0.5974736767    0.0949711451   -2.5894582338
13   
Iteration 1 Energy -340.92141608
C       -2.4014156265    1.2966047487   -0.9685591640
N       -1.5437597447    0.9691434709   -0.2293548927
C        0.8669028100    0.4866975440   -0.1898246700
C       -0.4666487770    0.5637362859    0.6074313621
C       -0.7631576743   -0.7649424742    1.3104849554
N       -1.7186957177   -1.5333817016    1.0732761294
C        1.4440892924   -0.8291341925   -0.6414645529
C        0.8854766833   -0.1131657157   -1.5636880425
H        1.5309093810    1.3236298326    0.0448128862
H       -0.3537441055    1.3190883418    1.3958669236
H       -0.0200821175   -1.0339481239    2.0783352764
H        1.9605693460   -1.7244415713   -0.3303844299
H        0.5795562504    0.0401135555   -2.5869317812
13   
Iteration 0 Energy -340.92140873
C       -2.4038151484    1.3270578051   -0.9482521135
N       -1.5453455292    0.9868839586   -0.2157405248
C        0.8605744518    0.4934213242   -0.1983791306
C       -0.4660000509    0.5625970499    0.6091538156
C       -0.7667403339   -0.7740712913    1.2949573296
N       -1.7372739841   -1.5255690913    1.0649185847
C        1.4621960758   -0.8195609443   -0.6265977863
C        0.8795299854   -0.1362896293   -1.5588104256
H        1.5077020846    1.3506452931    0.0089361116
H       -0.3448168284    1.3046976992    1.4090820422
H       -0.0145165025   -1.0639186204    2.0461747140
H        2.0045159131   -1.6947884289   -0.3024591170
H        0.5639898667   -0.0111051245   -2.5829834999
13   
Iteration 1 Energy -340.92142159
C       -2.4067844425    1.3567309792   -0.9270875316
N       -1.5470864756    1.0042177143   -0.2018613284
C        0.8539960162    0.4998716343   -0.2072058079
C       -0.4654275404    0.5613870858    0.6105999588
C       -0.7703898898   -0.7828618060    1.2794195617
N       -1.7553769923   -1.5176493136    1.0574628737
C        1.4804520365   -0.8091601606   -0.6120291227
C        0.8744042134   -0.1595375467   -1.5534499549
H        1.4834387968    1.3763572189   -0.0275272787
H       -0.3356670273    1.2901793843    1.4215584517
H       -0.0093435959   -1.0931607452    2.0134025237
H        2.0479824825   -1.6634777924   -0.2753881695
H        0.5498024184   -0.0628966525   -2.5778941759
13   
Iteration 2 Energy -340.92145398
C       -2.4130319728    1.3878682470   -0.9011220886
N       -1.5501045995    1.0193397789   -0.1877918487
C        0.8473228356    0.5052742778   -0.2166390316
C       -0.4650479480    0.5599821757    0.6112775498
C       -0.7735456951   -0.7909013325    1.2647321903