13   
Iteration 7 Energy -340.92393738
C       -2.3529462870    0.3319045554   -1.2810367057
N       -1.5421395555    0.4137860973   -0.4295983527
C        0.8886526096    0.2177889071   -0.0891278586
C       -0.5051281960    0.4918755206    0.5324039884
C       -0.7382102267   -0.4683465655    1.7067785736
N       -1.6811037770   -1.2792389870    1.8201574433
C        1.1090489314   -0.8412598275   -1.1244244365
C        1.1529623589    0.3813826683   -1.5547124136
H        1.6739609935    0.4423948729    0.6421777269
H       -0.5013712448    1.5099340955    0.9480072091
H        0.0352725067   -0.4106301080    2.4897211317
H        1.1655460205   -1.9027904080   -1.3120601963
H        1.2738244304    1.0882152300   -2.3615362284
13   
Iteration 8 Energy -340.92501221
C       -2.3868283820   -0.6686128398    0.4939103284
N       -1.9792629601    0.4861285161    0.2067848489
C        0.3777879328    0.8650131555   -0.5460421932
C       -0.5400423799    0.4358040961    0.6019394901
C       -0.3976779278   -0.9817690282    1.1091127141
N       -1.5079427421   -1.6413474097    1.0505490582
C        1.7761669883    0.3267374382   -0.7097699197
C        0.9044474650   -0.1074440692   -1.5661358384
H        0.1564472430    1.8910967963   -0.8541035052
H       -0.4118342650    1.1380298153    1.4411080179
H        0.5138025294   -1.4304157911    1.4987059537
H        2.7918757277    0.3554693546   -0.3429669748
H        0.6570637298   -0.7124093304   -2.4255929592
