13   
Iteration 1 Energy -340.92393770
C       -2.3790802085    0.2610195183   -1.2463371962
N       -1.5636279867    0.3533295254   -0.4004423041
C        0.8774373060    0.2683754176   -0.0883904153
C       -0.5217305089    0.4499465402    0.5546514319
C       -0.6940301266   -0.5612341903    1.6962090928
N       -1.5938964464   -1.4221394646    1.7887980491
C        1.1404355686   -0.7445277155   -1.1593108281
C        1.1167003068    0.4917806924   -1.5503806217
H        1.6582460857    0.5098910525    0.6423337874
H       -0.5645954874    1.4517866809    1.0058969770
H        0.0837320402   -0.4921586074    2.4739832350
H        1.2489094940   -1.7952155532   -1.3818613093
H        1.1914999628    1.2291461031   -2.3351498981
13   
Iteration 0 Energy -340.92393772
C       -2.3788824614    0.2623023578   -1.2464312446
N       -1.5635859629    0.3536590830   -0.4002809486
C        0.8773649196    0.2682893114   -0.0884353460
C       -0.5216645068    0.4500590803    0.5548152248
C       -0.6939237670   -0.5613268191    1.6961955144
N       -1.5918296802   -1.4244509873    1.7871632132
C        1.1401614851   -0.7447680902   -1.1592263476
C        1.1164910473    0.4914953607   -1.5504854452
H        1.6582730089    0.5100872775    0.6420907795
H       -0.5643250152    1.4518489089    1.0061800700
H        0.0822153473   -0.4903380137    2.4754259327
H        1.2484223472   -1.7955310448   -1.3815674903
H        1.1912832383    1.2286735755   -2.3354439123
13   
Iteration 133 Energy -340.92393764
C       -2.3790446991    0.2605223199   -1.2464089548
N       -1.5636953107    0.3526111255   -0.4003929916
C        0.8773911960    0.2676928333   -0.0884052061
C       -0.5217427691    0.4498289278    0.5545725241
C       -0.6939402266   -0.5606460745    1.6967660075
N       -1.5919167240   -1.4236283124    1.7883721497
C        1.1398519877   -0.7444846427   -1.1601132088
C        1.1171270386    0.4921580765   -1.5501786226
H        1.6582469616    0.5081717682    0.6426069440
H       -0.5644849675    1.4519727195    1.0051455747
H        0.0822319726   -0.4891468599    2.4759029092
H        1.2473859170   -1.7950924667   -1.3834735672
H        1.1925896234    1.2300405856   -2.3343935580
13   
Iteration 132 Energy -340.92393722
C       -2.3794302998    0.2734358033   -1.2454762213
N       -1.5636780353    0.3600833723   -0.3992760449
C        0.8774024877    0.2716421551   -0.0883833090
C       -0.5214234713    0.4519398685    0.5559347501
C       -0.6932508507   -0.5647202554    1.6926432134
N       -1.5868825983   -1.4330233154    1.7762721387
C        1.1416184757   -0.7465983476   -1.1538282416
C        1.1134349737    0.4873046126   -1.5520973461
H        1.6586379081    0.5196960373    0.6396619309
H       -0.5633869878    1.4518391950    1.0114105485
H        0.0800049116   -0.4936286149    2.4747085912
H        1.2524734206   -1.7982947184   -1.3703173807
H        1.1844800657    1.2203242077   -2.3412526293
13   
Iteration 131 Energy -340.92393420
C       -2.3800944189    0.2870674453   -1.2442672706
N       -1.5637383961    0.3679053514   -0.3980632298
C        0.8775378695    0.2757485832   -0.0882829793
C       -0.5211393149    0.4541887206    0.5572999575
C       -0.6924536579   -0.5688388014    1.6882636399
N       -1.5809216885   -1.4432724120    1.7629352254
C        1.1435316543   -0.7488119122   -1.1472021962
C        1.1096435708    0.4821613097   -1.5540338669
H        1.6590933940    0.5313718093    0.6367415361
H       -0.5622184812    1.4517883926    1.0177076461
H        0.0773335530   -0.4977663671    2.4737735344
H        1.2575289061   -1.8016740124   -1.3565607364
H        1.1758970098    1.2101318930   -2.3483112601
13   
Iteration 130 Energy -340.92392682
C       -2.3809759370    0.3041661674   -1.2425898378
N       -1.5638291311    0.3777066260   -0.3965110278
C        0.8776408051    0.2808834270   -0.0882778880
C       -0.5207039469    0.4569199471    0.5589729262
C       -0.6915421634   -0.5741116959    1.6826950205
N       -1.5740904007   -1.4553767170    1.7465812163
C        1.1461101516   -0.7514677518   -1.1388495520
C        1.1049029839    0.4756059480   -1.5564023451
H        1.6596704103    0.5464173064    0.6326118920
H       -0.5608103644    1.4514923116    1.0257901675
H        0.0741997050   -0.5036941089    2.4721331497
H        1.2643492055   -1.8055247729   -1.3391376622
H        1.1650786822    1.1969833128   -2.3570160594
13   
Iteration 129 Energy -340.92391676
C       -2.3817918621    0.3196148778   -1.2409886519
N       -1.5638692674    0.3865493896   -0.3950783933
C        0.8778399502    0.2856203883   -0.0882224149
C       -0.5203762966    0.4593128459    0.5605131181
C       -0.6907586861   -0.5788498139    1.6775763708
N       -1.5681512785   -1.4659453741    1.7317593044
C        1.1486313125   -0.7538455525   -1.1312309484
C        1.1005233858    0.4696756047   -1.5585364259
H        1.6600696442    0.5599566321    0.6290718232
H       -0.5594003402    1.4511888020    1.0329394705
H        0.0715610278   -0.5093277664    2.4704846826
H        1.2707438879   -1.8091331206   -1.3233333104
H        1.1549785227    1.1851830871   -2.3649546248
13   
Iteration 128 Energy -340.92390197
C       -2.3827561582    0.3367886954   -1.2389881738
N       -1.5639520178    0.3963832550   -0.3934323206
C        0.8779864432    0.2907948827   -0.0882950077
C       -0.5198669201    0.4619563976    0.5621508723
C       -0.6899296786   -0.5841969705    1.6718014812
N       -1.5620356452   -1.4770617909    1.7154514590
C        1.1516037677   -0.7563317112   -1.1226993681
C        1.0957144991    0.4628947927   -1.5607943166
H        1.6606505661    0.5753733575    0.6244683500
H       -0.5580099776    1.4506409318    1.0411254719
H        0.0686889001   -0.5162029092    2.4682465271
H        1.2782146470   -1.8125358383   -1.3055798099
H        1.1436915743    1.1714969074   -2.3734551649
13   
Iteration 127 Energy -340.92388466
C       -2.3836777813    0.3528739155   -1.2370288916
N       -1.5639756388    0.4056334626   -0.3918358344
C        0.8782552420    0.2958573248   -0.0882950459
C       -0.5195089671    0.4643318241    0.5637610472
C       -0.6892193416   -0.5892006328    1.6662659685
N       -1.5566314703   -1.4871135373    1.7000924551
C        1.1545812066   -0.7586654778   -1.1146020179
C        1.0910671096    0.4565633715   -1.5629456845
H        1.6609579243    0.5898310383    0.6205074918
H       -0.5564238856    1.4500899912    1.0486284786
H        0.0663078010   -0.5229993657    2.4659340682
H        1.2855110762   -1.8160422986   -1.2888172351
H        1.1327567250    1.1588403841   -2.3816648000
13   
Iteration 126 Energy -340.92386329
C       -2.3846729632    0.3696216760   -1.2347484901
N       -1.5640422598    0.4152863134   -0.3901154661
C        0.8784169533    0.3009494930   -0.0884553514
C       -0.5189293340    0.4668719927    0.5653396068
C       -0.6884689959   -0.5944806495    1.6604138152
N       -1.5512790884   -1.4971195028    1.6841366263
C        1.1577752586   -0.7609122304   -1.1061129207
C        1.0863365974    0.4497159137   -1.5650255714
H        1.6615191210    0.6052051997    0.6155005145
H       -0.5550968984    1.4493359909    1.0567549601
H        0.0637227873   -0.5305143559    2.4632060397
H        1.2933267108   -1.8188958609   -1.2711762546
H        1.1213921113    1.1449360202   -2.3897175082
13   
Iteration 125 Energy -340.92383947
C       -2.3856642586    0.3857341612   -1.2324849982
N       -1.5640541111    0.4246384077   -0.3883909731
C        0.8787394352    0.3061689366   -0.0885140669
C       -0.5185629828    0.4691787965    0.5669733070
C       -0.6878267728   -0.5995440868    1.6546436218
N       -1.5463744950   -1.5065170428    1.6686127628
C        1.1609981513   -0.7631183849   -1.0978379733
C        1.0816189566    0.4432019070   -1.5670927026
H        1.6617007523    0.6199969822    0.6112716745
H       -0.5533814285    1.4485848240    1.0643472649
H        0.0615916684   -0.5380004791    2.4604084469
H        1.3010957122   -1.8221722703   -1.2540663782
H        1.1101193728    1.1318482487   -2.3978699858
13   
Iteration 124 Energy -340.92381227
C       -2.3866353976    0.4021485991   -1.2299677799
N       -1.5641058572    0.4341758776   -0.3865740321
C        0.8789025172    0.3111805900   -0.0887613023
C       -0.5179139103    0.4716658257    0.5685132396
C       -0.6871187498   -0.6047583667    1.6487036717
N       -1.5414667452   -1.5157551880    1.6527850763
C        1.1643044525   -0.7651512761   -1.0893805174
C        1.0769606535    0.4362569243   -1.5689927818
H        1.6622536812    0.6352998300    0.6058288843
H       -0.5521199029    1.4476604348    1.0724542641
H        0.0591254157   -0.5458892435    2.4573586007
H        1.3091122235   -1.8245132411   -1.2364866108
H        1.0987016196    1.1176792340   -2.4054807121
13   
Iteration 123 Energy -340.92378198
C       -2.3876108178    0.4185784492   -1.2274368204
N       -1.5640968594    0.4437947933   -0.3846775176
C        0.8792729891    0.3166095064   -0.0888858968
C       -0.5175290722    0.4739476719    0.5702163676
C       -0.6865208608   -0.6099388397    1.6426326380
N       -1.5367435334   -1.5248678077    1.6367367272
C        1.1677331236   -0.7672750174   -1.0808303909
C        1.0720770565    0.4294472980   -1.5709878306
H        1.6623139821    0.6506022831    0.6012351241
H       -0.5502297435    1.4467013589    1.0802716644
H        0.0570544099   -0.5539321121    2.4541870216
H        1.3173506976   -1.8275918523   -1.2188068671
H        1.0869286282    1.1039242684   -2.4136542195
13   
Iteration 122 Energy -340.92374814
C       -2.3884816627    0.4354486722   -1.2246627319
N       -1.5641171110    0.4536493106   -0.3826639027
C        0.8794387122    0.3217249839   -0.0892295886
C       -0.5167908691    0.4764867505    0.5718145737
C       -0.6858253898   -0.6152926489    1.6363791596
N       -1.5318329299   -1.5339607009    1.6202501436
C        1.1712272519   -0.7692073881   -1.0720707340
C        1.0672386420    0.4221001413   -1.5727873846
H        1.6628629303    0.6664197182    0.5951143296
H       -0.5489237894    1.4455742246    1.0887007335
H        0.0544303031   -0.5622819554    2.4508780044
H        1.3258553260   -1.8295700635   -1.2005810667
H        1.0749185865    1.0889089554   -2.4211415359
13   
Iteration 121 Energy -340.92371016
C       -2.3893539292    0.4528089340   -1.2218425455
N       -1.5640707671    0.4638565034   -0.3805113377
C        0.8798457280    0.3274612027   -0.0894461037
C       -0.5163504846    0.4788050538    0.5736570515
C       -0.6852607090   -0.6207332261    1.6298475101
N       -1.5269287007   -1.5432338934    1.6030784256
C        1.1749370748   -0.7713170756   -1.0630078158
C        1.0619821277    0.4147342507   -1.5747406548
H        1.6628067931    0.6826902023    0.5898848400
H       -0.5467702341    1.4443478861    1.0970178123
H        0.0521442039   -0.5709174806    2.4473966293
H        1.3348001556   -1.8324643995   -1.1818411560
H        1.0622187416    1.0739620423   -2.4294926552
13   
Iteration 120 Energy -340.92366787
C       -2.3901230694    0.4708341995   -1.2187067899
N       -1.5640493904    0.4743979559   -0.3782020241
C        0.8799972052    0.3328218607   -0.0899163208
C       -0.5155111296    0.4814596888    0.5753900683
C       -0.6845772769   -0.6263984662    1.6230645456
N       -1.5216852305   -1.5526192157    1.5852897765
C        1.1787454797   -0.7732327065   -1.0536600628
C        1.0567441924    0.4066986172   -1.5764910248
H        1.6632838049    0.6995417798    0.5828335781
H       -0.5452839416    1.4429529372    1.1060455354
H        0.0491290299   -0.5798500107    2.4438340184
H        1.3441655734   -1.8341661094   -1.1623871666
H        1.0491647530    1.0575594693   -2.4370941335
13   
Iteration 119 Energy -340.92362242
C       -2.3909371391    0.4888239089   -1.2155892544
N       -1.5639931156    0.4849720236   -0.3758244768
C        0.8804049948    0.3386891029   -0.0902422111
C       -0.5150313663    0.4837363833    0.5773143384
C       -0.6840688409   -0.6319571134    1.6162107965
N       -1.5165882733   -1.5618975196    1.5673406350
C        1.1826985835   -0.7752738443   -1.0443000595
C        1.0512421161    0.3989002820   -1.5783220504
H        1.6630422202    0.7163966831    0.5770214872
H       -0.5428838367    1.4414499569    1.1146486431
H        0.0465870942   -0.5887674019    2.4401584491
H        1.3536713452   -1.8367480646   -1.1430642402
H        1.0358562178    1.0416756031   -2.4453520569
13   
Iteration 118 Energy -340.92357226
C       -2.3917740388    0.5076141512   -1.2119985919
N       -1.5639730182    0.4959359914   -0.3732726269
C        0.8804864587    0.3441277768   -0.0908579524
C       -0.5141283811    0.4864306635    0.5790927846
C       -0.6834209634   -0.6377960603    1.6090126083
N       -1.5112155341   -1.5712437271    1.5487887212
C        1.1868109778   -0.7770965970   -1.0345895581
C        1.0458006222    0.3903350108   -1.5799456036
H        1.6633330774    0.7338531759    0.5691306132
H       -0.5412820328    1.4397838378    1.1240167160
H        0.0433250620   -0.5981197501    2.4362908023
H        1.3638393222   -1.8380384283   -1.1228660293
H        1.0221984481    1.0242139554   -2.4528018835
13   
Iteration 117 Energy -340.92352344
C       -2.3926882561    0.5248960695   -1.2086926993
N       -1.5639658591    0.5060710999   -0.3708725388
C        0.8808935753    0.3497692104   -0.0912550826
C       -0.5137018524    0.4884308029    0.5809121418
C       -0.6830208261   -0.6430669586    1.6023026891
N       -1.5065210865   -1.5796863951    1.5315469687
C        1.1908386396   -0.7789025415   -1.0256064515
C        1.0405464852    0.3827190690   -1.5815096892
H        1.6628069240    0.7500843915    0.5633410236
H       -0.5387805528    1.4380756432    1.1321735599
H        0.0409700400   -0.6068134645    2.4324546370
H        1.3732741559   -1.8401638765   -1.1043844645
H        1.0093486130    1.0085869496   -2.4604100941
13   
Iteration 116 Energy -340.92346945
C       -2.3936740330    0.5434094977   -1.2047310724
N       -1.5639861910    0.5168233166   -0.3682217784
C        0.8808771275    0.3549569446   -0.0919884228
C       -0.5127734635    0.4910360753    0.5825770147
C       -0.6824520730   -0.6487841274    1.5950426730
N       -1.5017265308   -1.5881784329    1.5135163677
C        1.1951599784   -0.7804755998   -1.0160474992
C        1.0352698631    0.3740631659   -1.5828966413
H        1.6629313915    0.7671886181    0.5549039169
H       -0.5372877336    1.4362117454    1.1413586817
H        0.0378883708   -0.6163840937    2.4281926494
H        1.3839479751   -1.8408176469   -1.0844876362
H        0.9958253185    0.9909505373   -2.4672182531
13   
Iteration 115 Energy -340.92342017
C       -2.3946875956    0.5596477014   -1.2013208114
N       -1.5640132832    0.5263535929   -0.3658683383
C        0.8813554023    0.3604153970   -0.0924392306
C       -0.5124080376    0.4926361184    0.5842617310
C       -0.6822179899   -0.6537419585    1.5885869632
N       -1.4980019828   -1.5954246218    1.4975369451
C        1.1993213842   -0.7819953822   -1.0075674938
C        1.0303664238    0.3668202555   -1.5842067465
H        1.6621081418    0.7827438168    0.5493610689
H       -0.5346599381    1.4342439070    1.1489521016
H        0.0360497404   -0.6250304792    2.4240083281
H        1.3932245084   -1.8425103603   -1.0671021807
H        0.9835632265    0.9758420130   -2.4742023366
13   
Iteration 114 Energy -340.92336033
C       -2.3957919560    0.5790923900   -1.1967622256
N       -1.5640534323    0.5375937969   -0.3629040431
C        0.8812780768    0.3657181441   -0.0933218424
C       -0.5114079105    0.4952919313    0.5859517757
C       -0.6817506892   -0.6597087414    1.5808040621
N       -1.4938641125   -1.6033986951    1.4789947947
C        1.2042383790   -0.7834090611   -0.9975376860
C        1.0248083362    0.3574920597   -1.5854790508
H        1.6620688158    0.8006255787    0.5398385585
H       -0.5331023121    1.4320469777    1.1585370164
H        0.0331192491   -0.6356734326    2.4189266843
H        1.4053907003   -1.8425628585   -1.0461936911
H        0.9690668553    0.9568919101   -2.4808543528
13   
Iteration 113 Energy -340.92330347
C       -2.3968249169    0.5969399621   -1.1927644410
N       -1.5641009478    0.5480217314   -0.3601310798
C        0.8819018680    0.3717458663   -0.0939512713
C       -0.5108866206    0.4967956775    0.5877545228
C       -0.6816684530   -0.6651798107    1.5736102140
N       -1.4908659790   -1.6103728899    1.4618392437
C        1.2093423361   -0.7847736695   -0.9881985626
C        1.0194242216    0.3493244704   -1.5867255112
H        1.6610573815    0.8180582462    0.5331150107
H       -0.5300800506    1.4294436694    1.1669214072
H        0.0313626865   -0.6458827479    2.4137359934
H        1.4162404571   -1.8437391294   -1.0271033770
H        0.9550980172    0.9396186240   -2.4881021489
13   
Iteration 112 Energy -340.92323379
C       -2.3982004349    0.6184463495   -1.1871488235
N       -1.5641177604    0.5605630532   -0.3566088675
C        0.8816757498    0.3776117639   -0.0951398592
C       -0.5098070633    0.4995128805    0.5896581094
C       -0.6814471719   -0.6718322290    1.5647695868
N       -1.4880895888   -1.6178074221    1.4421720638
C        1.2153540915   -0.7860838602   -0.9770883734
C        1.0131214160    0.3386994312   -1.5880011481
H        1.6604255826    0.8382081401    0.5218575474
H       -0.5280590252    1.4265613228    1.1776311453
H        0.0289241455   -0.6588183567    2.4069624119
H        1.4313659096   -1.8431140754   -1.0039069172
H        0.9388541496    0.9180530022   -2.4951568757
13   
Iteration 111 Energy -340.92316603
C       -2.3993105091    0.6384001368   -1.1822535462
N       -1.5641307549    0.5721228747   -0.3533025439
C        0.8825255701    0.3843475111   -0.0960463104
C       -0.5089980196    0.5009901677    0.5915409100
C       -0.6814569672   -0.6779619953    1.5565550190
N       -1.4854621629   -1.6248273381    1.4231300235
C        1.2214970148   -0.7872148026   -0.9666248025
C        1.0072354877    0.3292805532   -1.5891401707
H        1.6592761518    0.8578915804    0.5134511884
H       -0.5246184474    1.4231844833    1.1869979319
H        0.0267905924   -0.6706086888    2.4008542992
H        1.4438933324   -1.8435564028   -0.9825857859
H        0.9227587120    0.8979519203   -2.5025762125
13   
Iteration 110 Energy -340.92309886
C       -2.4003846668    0.6578297724   -1.1770094872
N       -1.5646353434    0.5835706521   -0.3494792338
C        0.8820230417    0.3890258971   -0.0971816968
C       -0.5082362206    0.5034600867    0.5933437505
C       -0.6814841255   -0.6835254574    1.5487839035
N       -1.4835144616   -1.6305456697    1.4054642911
C        1.2275133570   -0.7882982495   -0.9569390854
C        1.0012425763    0.3191816034   -1.5900749749
H        1.6583809076    0.8752280714    0.5025367889
H       -0.5226439502    1.4205691145    1.1964864104
H        0.0246857086   -0.6823838802    2.3945142987
H        1.4594627062   -1.8421921078   -0.9623620408
H        0.9075904705    0.8780801670   -2.5080829243
13   
Iteration 109 Energy -340.92302333
C       -2.4026271614    0.6792746459   -1.1704232664
N       -1.5643593750    0.5957968771   -0.3461660026
C        0.8826651804    0.3968372703   -0.0986044339
C       -0.5071735606    0.5047177084    0.5950746628
C       -0.6814856937   -0.6907315406    1.5391005506
N       -1.4834349832   -1.6365265275    1.3867880147
C        1.2343565595   -0.7889273212   -0.9452109860
C        0.9955442529    0.3089555592   -1.5910633049
H        1.6561078912    0.8979480770    0.4924840568
H       -0.5191541740    1.4160185180    1.2069109265
H        0.0242866248   -0.6971163990    2.3854493179
H        1.4736612053   -1.8416121567   -0.9383985699
H        0.8916132337    0.8553652892   -2.5159409657
13   
Iteration 108 Energy -340.92292324
C       -2.4044972855    0.7071581724   -1.1621513435
N       -1.5650017294    0.6120930979   -0.3404795415
C        0.8823803728    0.4045427668   -0.1005219790
C       -0.5060569165    0.5074844294    0.5976172610
C       -0.6816922016   -0.6989225401    1.5274187421
N       -1.4819281546   -1.6438628178    1.3615298074
C        1.2436117167   -0.7899231743   -0.9309546756
C        0.9872818865    0.2944439614   -1.5920667241
H        1.6537354759    0.9240200489    0.4770075185
H       -0.5153646460    1.4112831444    1.2203262805
H        0.0220819590   -0.7148270653    2.3751364455
H        1.4957092843   -1.8391731894   -0.9090021538
H        0.8697402384    0.8256831656   -2.5238596374
13   
Iteration 107 Energy -340.92282336
C       -2.4069697547    0.7348659890   -1.1530548067
N       -1.5654083660    0.6281977683   -0.3349081573
C        0.8822865021    0.4130031465   -0.1026829099
C       -0.5048080635    0.5095833865    0.5999562041
C       -0.6819924061   -0.7075021096    1.5152113201
N       -1.4825117284   -1.6500783552    1.3374924213
C        1.2531980775   -0.7904405637   -0.9164631908
C        0.9794766654    0.2800609686   -1.5928902795
H        1.6504005115    0.9514426891    0.4614296102
H       -0.5110846179    1.4055756659    1.2337429531
H        0.0211041681   -0.7337642802    2.3632542888
H        1.5178015430   -1.8362056952   -0.8791843050
H        0.8485074690    0.7952613900   -2.5319031484
13   
Iteration 106 Energy -340.92272256
C       -2.4094149868    0.7626483984   -1.1434913870
N       -1.5659755765    0.6443417402   -0.3288900714
C        0.8820238649    0.4212031644   -0.1050326368
C       -0.5035571807    0.5116810345    0.6023379636
C       -0.6824761547   -0.7159308715    1.5029095326
N       -1.4838183576   -1.6555445295    1.3135161045
C        1.2633323491   -0.7906571522   -0.9019945742
C        0.9715644603    0.2652253429   -1.5934676128
H        1.6466860875    0.9786329026    0.4449350791
H       -0.5066513497    1.3997030109    1.2471188377
H        0.0202532063   -0.7530506743    2.3508248594
H        1.5410938021   -1.8323184539   -0.8495156650
H        0.8269398357    0.7640660876   -2.5392504297
13   
Iteration 105 Energy -340.92262076
C       -2.4121142247    0.7901775032   -1.1332648304
N       -1.5665992532    0.6605531930   -0.3225373384
C        0.8815912653    0.4293700933   -0.1076303109
C       -0.5022476288    0.5135543646    0.6046556134
C       -0.6831341699   -0.7243548039    1.4904488505
N       -1.4863477134   -1.6601354986    1.2902457783
C        1.2738202933   -0.7905273508   -0.8876524861
C        0.9638264420    0.2501490083   -1.5938614657
H        1.6422427415    1.0059969181    0.4276957609
H       -0.5018978471    1.3933445596    1.2605159072
H        0.0197296994   -0.7728007701    2.3376660625
H        1.5653799741   -1.8275305819   -0.8201202190
H        0.8057504215    0.7322033653   -2.5461613222
13   
Iteration 104 Energy -340.92251750
C       -2.4149172335    0.8175668353   -1.1225863067
N       -1.5674049908    0.6766910292   -0.3158403735
C        0.8810163749    0.4373200237   -0.1103758896
C       -0.5009835298    0.5154044911    0.6069138461
C       -0.6838455205   -0.7325632746    1.4779369297
N       -1.4889548463   -1.6643417543    1.2669524918
C        1.2845289010   -0.7900879428   -0.8734367235
C        0.9562201665    0.2347977331   -1.5939935747
H        1.6374079862    1.0328141555    0.4098690806
H       -0.4970799083    1.3868575132    1.2736803485
H        0.0191431225   -0.7923723568    2.3242696174
H        1.5901446525   -1.8218935494   -0.7910311162
H        0.7847248256    0.6998070968   -2.5523583299
13   
Iteration 103 Energy -340.92241453
C       -2.4179094354    0.8448347944   -1.1112329247
N       -1.5682103626    0.6929490946   -0.3087733590
C        0.8801281716    0.4452143243   -0.1134628729
C       -0.4996681479    0.5170428052    0.6092006490
C       -0.6847567385   -0.7408044044    1.4652457950
N       -1.4925274142   -1.6679667292    1.2442753821
C        1.2954507913   -0.7893671133   -0.8593136381
C        0.9487507481    0.2192233692   -1.5939521736
H        1.6315572900    1.0598892560    0.3912544895
H       -0.4917934143    1.3798975885    1.2869397100
H        0.0187863380   -0.8122323377    2.3102273668
H        1.6159116907   -1.8153856948   -0.7621555660
H        0.7642804831    0.6667050471   -2.5582528580
13   
Iteration 102 Energy -340.92231399
C       -2.4209969768    0.8720071144   -1.0994379123
N       -1.5691779030    0.7091044726   -0.3013962727
C        0.8790974770    0.4529041069   -0.1167353778
C       -0.4984006098    0.5184969469    0.6113706645
C       -0.6858291726   -0.7489120596    1.4525669378
N       -1.4969867475   -1.6708524771    1.2223585304
C        1.3068343568   -0.7882284580   -0.8453747564
C        0.9414207073    0.2033788253   -1.5937087830
H        1.6251908610    1.0865152169    0.3720027099
H       -0.4864105223    1.3726219433    1.2999366421
H        0.0187193522   -0.8322567933    2.2955865097
H        1.6425543243   -1.8078261365   -0.7336812421
H        0.7439848534    0.6330472981   -2.5634876501
13   
Iteration 101 Energy -340.92221595
C       -2.4242006916    0.8991805388   -1.0871105564
N       -1.5702122538    0.7252222319   -0.2937148724
C        0.8777300174    0.4604771884   -0.1203038526
C       -0.4971522957    0.5197076872    0.6135036839
C       -0.6870492822   -0.7570163000    1.4397986221
N       -1.5023706809   -1.6731681623    1.2013395743
C        1.3185336478   -0.7867074563   -0.8315531691
C        0.9342515055    0.1873054236   -1.5932836562
H        1.6178083675    1.1131527073    0.3520660163
H       -0.4807402084    1.3649018500    1.3128664013
H        0.0190393139   -0.8525003563    2.2802507251
H        1.6700471900   -1.7992974403   -0.7055160170
H        0.7243153706    0.5987420881   -2.5683428993
13   
Iteration 100 Energy -340.92211952
C       -2.4276512703    0.9263415182   -1.0742851310
N       -1.5715414746    0.7410746619   -0.2857437312
C        0.8760945291    0.4678829494   -0.1240957159
C       -0.4960494247    0.5206934474    0.6154637825
C       -0.6883399832   -0.7650307418    1.4270257578
N       -1.5086469395   -1.6747954161    1.1813790731
C        1.3306112989   -0.7847366094   -0.8179029021
C        0.9274721965    0.1710446864   -1.5926526714
H        1.6096488950    1.1393785870    0.3315996283
H       -0.4750982107    1.3568378129    1.3254622014
H        0.0199630826   -0.8729149706    2.2640951532
H        1.6982208289   -1.7897000231   -0.6777251411
H        0.7053164719    0.5639240979   -2.5726203035
13   
Iteration 99 Energy -340.92202395
C       -2.4313462140    0.9535221214   -1.0608152608
N       -1.5730543576    0.7567142884   -0.2774427443
C        0.8740725081    0.4751169179   -0.1282076313
C       -0.4950275171    0.5213960594    0.6173289705
C       -0.6897750351   -0.7730300574    1.4142250751
N       -1.5160337578   -1.6757403797    1.1626298883
C        1.3429923006   -0.7823558310   -0.8044084580
C        0.9210022062    0.1545992295   -1.5918809145
H        1.6003883130    1.1654663859    0.3104749078
H       -0.4692523545    1.3483518883    1.3378498259
H        0.0214392972   -0.8936079806    2.2471003674
H        1.7273621365   -1.7789916314   -0.6503093473
H        0.6872324745    0.5285589894   -2.5765446788
13   
Iteration 98 Energy -340.92193092
C       -2.4352802081    0.9805329252   -1.0467504711
N       -1.5747637854    0.7720140410   -0.2688559383
C        0.8717934488    0.4821189753   -0.1325640360
C       -0.4940920260    0.5218435814    0.6190486227
C       -0.6913734125   -0.7809182635    1.4014964370
N       -1.5245651723   -1.6758621394    1.1451701642
C        1.3557771158   -0.7794968166   -0.7911654981
C        0.9148477019    0.1379688739   -1.5909596821
H        1.5903111046    1.1910740675    0.2888038981
H       -0.4633133306    1.3395461389    1.3498702761
H        0.0234049657   -0.9145238790    2.2293119818
H        1.7573594606   -1.7670980207   -0.6234495675
H        0.6698941375    0.4928005161   -2.5799561870
13   
Iteration 97 Energy -340.92184255
C       -2.4394081600    1.0072352287   -1.0320586276
N       -1.5765174529    0.7870812665   -0.2600044149
C        0.8692140666    0.4889519235   -0.1371910060
C       -0.4931644852    0.5220576431    0.6206783379
C       -0.6931543843   -0.7887450749    1.3887672444
N       -1.5342668995   -1.6752126227    1.1289944247
C        1.3688334281   -0.7761580817   -0.7781176676
C        0.9089834070    0.1211822509   -1.5898958365
H        1.5792727222    1.2163886591    0.2665600314
H       -0.4571608554    1.3303983454    1.3616494383
H        0.0258279241   -0.9357565934    2.2106593488
H        1.7881341006   -1.7540058456   -0.5970589704
H        0.6534065887    0.4565829012   -2.5829823025
13   
Iteration 96 Energy -340.92176082
C       -2.4436057527    1.0334963349   -1.0169406855
N       -1.5782982590    0.8018780552   -0.2509547621
C        0.8664367694    0.4956158665   -0.1420096423
C       -0.4922567766    0.5220776607    0.6221898015
C       -0.6950903269   -0.7964639025    1.3760804692
N       -1.5450483365   -1.6737617405    1.1141422010
C        1.3821721937   -0.7723129295   -0.7652999078
C        0.9034330190    0.1042713607   -1.5886303580
H        1.5674794403    1.2412411256    0.2438312458
H       -0.4509032608    1.3209635507    1.3731229523
H        0.0287122282   -0.9572461052    2.1911317998
H        1.8194135902   -1.7397481061   -0.5712099315
H        0.6375554717    0.4199888293   -2.5854531824
13   
Iteration 95 Energy -340.92168670
C       -2.4478134011    1.0593642595   -1.0014381827
N       -1.5800616313    0.8164875635   -0.2417152336
C        0.8633690716    0.5021094186   -0.1470393391
C       -0.4913709457    0.5219252978    0.6236218533