13   
Iteration 17 Energy -340.92393753
C       -2.4075590621    0.2000567085   -1.2605904765
N       -1.5919765546    0.2927162737   -0.4148594095
C        0.8491537523    0.2082914886   -0.1032984894
C       -0.5499356369    0.3895703516    0.5400610222
C       -0.7217206162   -0.6217165289    1.6815939820
N       -1.6214931085   -1.4826765917    1.7746201018
C        1.1121592091   -0.8046273464   -1.1742267245
C        1.0882746876    0.4316662762   -1.5653018102
H        1.6300126042    0.4497999880    0.6273620965
H       -0.5929551732    1.3913669357    0.9913752343
H        0.0563944564   -0.5526705188    2.4590206016
H        1.2207765693   -1.8552926659   -1.3967983079
H        1.1629508993    1.1690489103   -2.3500636635
13   
Iteration 1 Energy -340.92257160
C       -2.4896449353    1.7614034684   -0.4011499978
N       -1.5984943057    1.1599571093    0.0817392456
C        0.7090592143    0.5241913971   -0.3496069105
C       -0.4867873419    0.4536181357    0.6243615270
C       -0.8527056721   -0.9850051837    0.9982272570
N       -1.9612273031   -1.5327363463    0.8243471347
C        1.7233322014   -0.5774286400   -0.4812741155
C        0.8887257567   -0.4612568882   -1.4672129156
H        1.0138411369    1.5657840079   -0.4962250573
H       -0.2027606855    0.9567834525    1.5604439632
H       -0.0319074187   -1.5490235559    1.4688861732
H        2.5791904940   -1.0597623630   -0.0325440933
H        0.5318756094   -0.7728080354   -2.4370125823
