13   
Iteration 1 Energy -340.92393756
C       -2.4074022854    0.2005325829   -1.2611027843
N       -1.5919500636    0.2928425900   -0.4152078922
C        0.8491152291    0.2078884822   -0.1031560034
C       -0.5500525858    0.3894596048    0.5398858438
C       -0.7223522035   -0.6217211257    1.6814435047
N       -1.6222185233   -1.4826264000    1.7740324610
C        1.1121134917   -0.8050146509   -1.1740764162
C        1.0883782299    0.4312937570   -1.5651462098
H        1.6299240088    0.4494041171    0.6275681993
H       -0.5929175643    1.3912997455    0.9911313889
H        0.0554099633   -0.5526455428    2.4592176469
H        1.2205874171   -1.8557024886   -1.3966268974
H        1.1631778859    1.1686591677   -2.3499154862
13   
Iteration 1 Energy -340.92257159
C       -2.4894172647    1.7616458372   -0.4018026763
N       -1.5983908034    1.1601386100    0.0812399138
C        0.7092014097    0.5242162219   -0.3496924071
C       -0.4868298107    0.4537171742    0.6240565917
C       -0.8529164168   -0.9848827726    0.9978401704
N       -1.9614667966   -1.5324823897    0.8237325019
C        1.7234365059   -0.5774577666   -0.4812066701
C        0.8890009802   -0.4612267142   -1.4672824191
H        1.0140711410    1.5657920805   -0.4962444050
H       -0.2029390310    0.9568533291    1.5601954580
H       -0.0322581602   -1.5489880194    1.4686414513
H        2.5791945205   -1.0598442606   -0.0323420411
H        0.5322987724   -0.7727424086   -2.4371477683
