13   
Iteration 1 Energy -341.01158751
C       -3.8429267359    0.6632029354    1.1996566241
N       -4.4616507573    1.6270170459    1.4411975762
C        0.3413817442    0.2886506071    0.8666115975
C       -1.0060266021    0.4395442127    0.9794058135
C       -1.9775703106   -0.6169561279    0.8153343644
N       -3.2686072540   -0.5095761121    0.9167810306
C        2.3947337199   -0.9847552517    0.4753067817
C        1.0727241063   -0.9331925253    0.5655099459
H        0.9599167060    1.1706290744    1.0151270412
H       -1.3984396747    1.4266602971    1.2109647361
H       -1.6282444659   -1.6213327717    0.5815081698
H        3.1531648278   -1.7291236411    0.2731405411
H        0.5100152107   -1.8583029781    0.4046104358
13   
Iteration 0 Energy -341.01158747
C       -3.8425880230    0.6633633232    1.2003201600
N       -4.4614685495    1.6268661020    1.4426682009
C        0.3417350672    0.2892819769    0.8663363526
C       -1.0056490664    0.4405282800    0.9789502163
C       -1.9770281897   -0.6160981144    0.8148559423
N       -3.2680664092   -0.5091010832    0.9165667993
C        2.3944316237   -0.9859502004    0.4755969732
C        1.0724445231   -0.9330510586    0.5656120753
H        0.9606093841    1.1710167477    1.0147252171
H       -1.3980368283    1.4276985025    1.2103708953
H       -1.6274959825   -1.6203733077    0.5808517425
H        3.1521177852   -1.7311508641    0.2738207132
H        0.5090089990   -1.8577936472    0.4049897761
13   
Iteration 114 Energy -341.01158704
C       -3.8424234428    0.6628834365    1.2039941506
N       -4.4609643215    1.6256080910    1.4503493067
C        0.3415277289    0.2894363602    0.8639096396
C       -1.0058864347    0.4410126708    0.9755062734
C       -1.9774642122   -0.6155511044    0.8118674325
N       -3.2683142233   -0.5088320621    0.9163581650
C        2.3947243592   -0.9863393938    0.4788212900
C        1.0725844920   -0.9333301531    0.5660697380
H        0.9603726181    1.1713452320    1.0118538454
H       -1.3981790253    1.4283574886    1.2062707026
H       -1.6283116248   -1.6194109938    0.5755604638
H        3.1529418670   -1.7317236627    0.2794708369
H        0.5094065530   -1.8582192525    0.4056332197
13   
Iteration 113 Energy -341.01158592
C       -3.8419798596    0.6617130019    1.2080919890
N       -4.4602157705    1.6234138827    1.4590798322
C        0.3414895062    0.2903439403    0.8615394203
C       -1.0060693083    0.4420205982    0.9716045803
C       -1.9774080547   -0.6147243486    0.8081564284
N       -3.2680748662   -0.5089638448    0.9158551696
C        2.3946109112   -0.9871493973    0.4816066745
C        1.0723324342   -0.9334205325    0.5667644743
H        0.9602553642    1.1722400341    1.0090594167
H       -1.3985667589    1.4295095472    1.2014276653
H       -1.6282240978   -1.6179049944    0.5691095989
H        3.1528091129   -1.7333323509    0.2855696821
H        0.5090557210   -1.8585088789    0.4078001325
13   
Iteration 112 Energy -341.01158398
C       -3.8417847397    0.6611130241    1.2127196879
N       -4.4594741030    1.6219410760    1.4684290934
C        0.3410434623    0.2904079973    0.8585466276
C       -1.0065219670    0.4426148012    0.9673845944
C       -1.9780931902   -0.6141422319    0.8048258113
N       -3.2684892746   -0.5087054507    0.9158132049
C        2.3954196372   -0.9877714597    0.4863266759
C        1.0729116457   -0.9333130969    0.5670991006
H        0.9597639574    1.1726415460    1.0053849357
H       -1.3989112039    1.4304032596    1.1961899941
H       -1.6294074613   -1.6168752670    0.5629322344
H        3.1536951036   -1.7346085050    0.2926982142
H        0.5098624673   -1.8584690362    0.4073148896
13   
Iteration 111 Energy -341.01157988
C       -3.8409801815    0.6592824141    1.2191055966
N       -4.4581880772    1.6183473599    1.4824391206
C        0.3410770051    0.2917886045    0.8548020533
C       -1.0066544383    0.4441561557    0.9612587595
C       -1.9779425780   -0.6127818211    0.7986098884
N       -3.2680376808   -0.5087732599    0.9147653799
C        2.3947444433   -0.9888687145    0.4902546728
C        1.0721457424   -0.9339889004    0.5687792129
H        0.9598354611    1.1739494934    1.0007858163
H       -1.3993282189    1.4321178531    1.1886354698
H       -1.6292260195   -1.6143330069    0.5522492134
H        3.1537299770   -1.7362935472    0.3020353374
H        0.5088388991   -1.8593659739    0.4119445433
13   
Iteration 110 Energy -341.01157058
C       -3.8400233481    0.6571866141    1.2293793428
N       -4.4558654734    1.6140714743    1.5035903756
C        0.3404020335    0.2928242393    0.8483283206
C       -1.0075488301    0.4459860590    0.9515414332
C       -1.9788832607   -0.6112112239    0.7905454025
N       -3.2683551346   -0.5086597756    0.9142310622
C        2.3957450589   -0.9904182845    0.4995577721
C        1.0726752415   -0.9335995659    0.5694646802
H        0.9589275069    1.1754216169    0.9933678034
H       -1.4002752652    1.4344746108    1.1767629387
H       -1.6309887592   -1.6115355989    0.5378346365
H        3.1543828662   -1.7398365961    0.3178755130
H        0.5098216978   -1.8594669127    0.4131857833
13   
Iteration 109 Energy -341.01155619
C       -3.8385878446    0.6544146143    1.2403045377
N       -4.4532613172    1.6084923205    1.5266381884
C        0.3399865499    0.2944749821    0.8417746916
C       -1.0080187179    0.4482479422    0.9414524303
C       -1.9791831191   -0.6092390288    0.7810209613
N       -3.2679797578   -0.5086696625    0.9132602641
C        2.3953079505   -0.9922459500    0.5081467069
C        1.0720677907   -0.9342927636    0.5718661884
H        0.9586903785    1.1772629229    0.9848321191
H       -1.4010277223    1.4371634356    1.1639781639
H       -1.6315318050   -1.6077183080    0.5208946702
H        3.1548659254   -1.7426707781    0.3344438581
H        0.5086860227   -1.8599830698    0.4170522842
13   
Iteration 108 Energy -341.01153595
C       -3.8372745253    0.6514925401    1.2519561187
N       -4.4507657374    1.6024108127    1.5510355277
C        0.3396365605    0.2961506234    0.8341972897
C       -1.0087057131    0.4507479649    0.9300728178
C       -1.9798434649   -0.6070162566    0.7712661379
N       -3.2678426366   -0.5085428670    0.9122795755
C        2.3956970689   -0.9940650252    0.5177848416
C        1.0720549312   -0.9339949034    0.5725346849
H        0.9581441658    1.1791124924    0.9766771647
H       -1.4017676032    1.4401398768    1.1506974133
H       -1.6331741261   -1.6039145242    0.5038743167
H        3.1547751418   -1.7467935696    0.3525421928
H        0.5090802722   -1.8604905075    0.4207469827
13   
Iteration 107 Energy -341.01151475
C       -3.8361027559    0.6485484646    1.2619798803
N       -4.4494605885    1.5963222513    1.5711978834
C        0.3393248714    0.2978259573    0.8282580063
C       -1.0088656410    0.4532684810    0.9213943805
C       -1.9798085764   -0.6050012003    0.7633679476
N       -3.2670527371   -0.5086436495    0.9121070738
C        2.3953222133   -0.9964346158    0.5267306001
C        1.0716437949   -0.9342649912    0.5748290112
H        0.9582882733    1.1810223737    0.9679355379
H       -1.4021790599    1.4431422955    1.1392663826
H       -1.6331365267   -1.6001141959    0.4890587628
H        3.1545143277   -1.7505690455    0.3681385643
H        0.5075267388   -1.8598654685    0.4214010334
13   
Iteration 106 Energy -341.01149138
C       -3.8356013113    0.6459024978    1.2710741267
N       -4.4494529868    1.5901574447    1.5898850212
C        0.3397329569    0.2994876450    0.8214465019
C       -1.0088746744    0.4557881295    0.9117945292
C       -1.9799608000   -0.6025526961    0.7559897325
N       -3.2664792077   -0.5083486615    0.9119678876
C        2.3952994559   -0.9981631418    0.5341371590
C        1.0712662744   -0.9339353315    0.5731812005
H        0.9588028713    1.1821603093    0.9625319016
H       -1.4018602285    1.4459352672    1.1293341356
H       -1.6341663245   -1.5966278613    0.4772011324
H        3.1539217824   -1.7543638872    0.3838767008
H        0.5073865260   -1.8602030572    0.4232450352
13   
Iteration 105 Energy -341.01146945
C       -3.8354817560    0.6433407806    1.2781363297
N       -4.4507377726    1.5845632487    1.6033132672
C        0.3394784528    0.3009019829    0.8177031321
C       -1.0086885311    0.4581611011    0.9074043607
C       -1.9795000837   -0.6008494448    0.7520317841
N       -3.2655022232   -0.5083693905    0.9122874572
C        2.3954635660   -1.0014007424    0.5435563717
C        1.0716430905   -0.9337791768    0.5762061226
H        0.9591350469    1.1845191414    0.9534911114
H       -1.4018463211    1.4490071096    1.1211173498
H       -1.6332983188   -1.5934702804    0.4679248476
H        3.1529436902   -1.7594415520    0.3945915550
H        0.5064054938   -1.8579461205    0.4179013750
13   
Iteration 104 Energy -341.01143975
C       -3.8348039425    0.6385992750    1.2865068449
N       -4.4529027502    1.5757222509    1.6180550525
C        0.3411254372    0.3044266114    0.8104013592
C       -1.0075537205    0.4630016816    0.8964889682
C       -1.9772049340   -0.5974312763    0.7451819797
N       -3.2623418536   -0.5098076670    0.9148079574
C        2.3927699035   -1.0042085524    0.5481857076
C        1.0687650835   -0.9328207003    0.5709087264
H        0.9620529956    1.1855477994    0.9527879185
H       -1.4007052068    1.4534571820    1.1122822731
H       -1.6304061366   -1.5890817433    0.4591059303
H        3.1492848944   -1.7651004186    0.4114322993
H        0.5019345637   -1.8570677856    0.4195200470
13   
Iteration 103 Energy -341.01138915
C       -3.8355606086    0.6333900827    1.2982740283
N       -4.4589512735    1.5648235636    1.6358460042
C        0.3417952625    0.3084847721    0.8012312249
C       -1.0064278389    0.4681287094    0.8887997583
C       -1.9751273396   -0.5940021327    0.7422539878
N       -3.2591802846   -0.5108271777    0.9200878727
C        2.3924184817   -1.0115120748    0.5679447851
C        1.0689348805   -0.9309589290    0.5673291345
H        0.9639730531    1.1894961435    0.9387527572
H       -1.3995792179    1.4592198971    1.1014482426
H       -1.6273519475   -1.5839652274    0.4517576120
H        3.1452248910   -1.7771265365    0.4373133029
H        0.4998462756   -1.8499144336    0.3946263538
13   
Iteration 102 Energy -341.01131498
C       -3.8357451469    0.6267160295    1.3085317755
N       -4.4654992688    1.5530702579    1.6484701564
C        0.3436756360    0.3140294872    0.7908614354
C       -1.0044982764    0.4749356658    0.8791571787
C       -1.9709543683   -0.5904121235    0.7404282649
N       -3.2538433521   -0.5138048784    0.9283340308
C        2.3889917277   -1.0189632654    0.5844793381
C        1.0665079594   -0.9277138031    0.5575074399
H        0.9677958856    1.1934768128    0.9318484438
H       -1.3979171676    1.4657108160    1.0928487704
H       -1.6209691711   -1.5797173024    0.4497642691
H        3.1381156025   -1.7902722216    0.4648020384
H        0.4943542736   -1.8418188179    0.3686319227
13   
Iteration 101 Energy -341.01121315
C       -3.8358421201    0.6199559325    1.3173569366
N       -4.4719592451    1.5421978486    1.6564660767
C        0.3452165316    0.3202463933    0.7813592049
C       -1.0026860635    0.4814849876    0.8722504929
C       -1.9662219274   -0.5875536706    0.7417175728
N       -3.2479962921   -0.5176302412    0.9380525034
C        2.3850746372   -1.0276418557    0.6033697288
C        1.0646572471   -0.9238965468    0.5467618244
H        0.9710091282    1.1977197027    0.9236073578
H       -1.3968288668    1.4717828717    1.0864119124
H       -1.6134890151   -1.5758988019    0.4525937102
H        3.1289567177   -1.8048659022    0.4920630087
H        0.4901236021   -1.8306640612    0.3336547344
13   
Iteration 100 Energy -341.01107867
C       -3.8355109503    0.6129990487    1.3248960438
N       -4.4777719086    1.5320486747    1.6611892371
C        0.3468667368    0.3267696929    0.7719927952
C       -1.0008533404    0.4881189642    0.8659786049
C       -1.9608247140   -0.5853067664    0.7445739558
N       -3.2415418993   -0.5223121988    0.9488784026
C        2.3797110455   -1.0365990288    0.6219660161
C        1.0622374298   -0.9190639164    0.5344267687
H        0.9744964343    1.2031498583    0.9172442379
H       -1.3960418838    1.4777725124    1.0814996078
H       -1.6044198697   -1.5736748046    0.4586599993
H        3.1184362917   -1.8203670524    0.5189997322
H        0.4852309618   -1.8182983269    0.2953596626
13   
Iteration 99 Energy -341.01091048
C       -3.8347295576    0.6059094332    1.3314767427
N       -4.4825904558    1.5224512574    1.6636249572
C        0.3482755088    0.3337992427    0.7632554404
C       -0.9991113000    0.4945189131    0.8607698914
C       -1.9550287954   -0.5836245574    0.7485771493
N       -3.2347104383   -0.5275829047    0.9600619871
C        2.3734038539   -1.0461217766    0.6407513861
C        1.0601203554   -0.9140998918    0.5216924613
H        0.9772003577    1.2079749475    0.9109218591
H       -1.3957309157    1.4831516733    1.0775067210
H       -1.5948167045   -1.5711656295    0.4671161299
H        3.1059040474   -1.8361053594    0.5450839318
H        0.4818283778   -1.8038686910    0.2548264068
13   
Iteration 98 Energy -341.01070688
C       -3.8335751171    0.5987638623    1.3373559475
N       -4.4866571248    1.5133529382    1.6646497993
C        0.3496928624    0.3409039907    0.7547094082
C       -0.9975353711    0.5008036454    0.8560178932
C       -1.9489440144   -0.5823162225    0.7533480923
N       -3.2276115141   -0.5332631305    0.9715548767
C        2.3659628267   -1.0558332510    0.6594137494
C        1.0576723963   -0.9083352343    0.5086281531
H        0.9801879340    1.2144259218    0.9053164996
H       -1.3958269786    1.4885982565    1.0742522761
H       -1.5841426971   -1.5702392309    0.4768827066
H        3.0925846383   -1.8526502375    0.5708037066
H        0.4782064932   -1.7889746513    0.2127319553
13   
Iteration 97 Energy -341.01047040
C       -3.8320055817    0.5915532258    1.3426549556
N       -4.4898087539    1.5045577475    1.6646279138
C        0.3508645445    0.3483495205    0.7465796884
C       -0.9959356430    0.5068290570    0.8518302925
C       -1.9426019433   -0.5815291210    0.7586007658
N       -3.2202994327   -0.5392326146    0.9829831314
C        2.3576119632   -1.0660427161    0.6779566702
C        1.0557135192   -0.9027386382    0.4955359501
H        0.9821277000    1.2197740293    0.8996318620
H       -1.3962057935    1.4932839631    1.0712164113
H       -1.5733309658   -1.5684371624    0.4879870840
H        3.0774626331   -1.8690272711    0.5956879151
H        0.4764220877   -1.7721033631    0.1703724238
13   
Iteration 96 Energy -341.01020181
C       -3.8301978366    0.5843731798    1.3475285290
N       -4.4923946072    1.4961077570    1.6640228095
C        0.3520993469    0.3557245700    0.7386449722
C       -0.9946090855    0.5126573835    0.8480022194
C       -1.9361810656   -0.5808671493    0.7642148962
N       -3.2128966054   -0.5453517492    0.9943482961
C        2.3483375095   -1.0763018458    0.6963885408
C        1.0534151641   -0.8964503850    0.4825519012
H        0.9846488029    1.2270092530    0.8940605435
H       -1.3969650418    1.4982240701    1.0688163617
H       -1.5617952497   -1.5683406385    0.4994415356
H        3.0620095013   -1.8860769439    0.6202706068
H        0.4745435008   -1.7554708451    0.1273738520
13   
Iteration 95 Energy -341.00990356
C       -3.8280132721    0.5771363093    1.3520653757
N       -4.4942055606    1.4878062514    1.6629410849
C        0.3530278817    0.3633208686    0.7309344885
C       -0.9930842900    0.5182519347    0.8445741037
C       -1.9295421477   -0.5807123171    0.7700699795
N       -3.2053453971   -0.5516123240    1.0055282230
C        2.3380840867   -1.0870793708    0.7145936874
C        1.0517705059   -0.8906045452    0.4696671999
H        0.9858229653    1.2327563157    0.8883359762
H       -1.3977954506    1.5022824753    1.0661775750
H       -1.5502314813   -1.5668067551    0.5116694538
H        3.0448549376   -1.9026643671    0.6440557923
H        0.4746715561   -1.7368378190    0.0850521241
13   
Iteration 94 Energy -341.00958051
C       -3.8257140156    0.5700338846    1.3562592985
N       -4.4956485653    1.4798018766    1.6616184118
C        0.3541144737    0.3707040154    0.7235192014
C       -0.9919865814    0.5235925277    0.8414960886
C       -1.9229804774   -0.5804753987    0.7760044405
N       -3.1978431592   -0.5578451371    1.0163640121
C        2.3271869092   -1.0976446798    0.7325878951
C        1.0496476848   -0.8840888278    0.4571694285
H        0.9880240135    1.2405182612    0.8821614260
H       -1.3989922625    1.5067465295    1.0645636339
H       -1.5382918845   -1.5672182762    0.5236700645
H        3.0277983643   -1.9197521976    0.6675255569
H        0.4746998342   -1.7191359208    0.0427256063
13   
Iteration 93 Energy -341.00923100
C       -3.8230417386    0.5628654213    1.3603453145
N       -4.4963715038    1.4718942603    1.6601364729
C        0.3547863356    0.3782912556    0.7160269246
C       -0.9904410307    0.5287058691    0.8387561138
C       -1.9161963741   -0.5808120910    0.7821712385
N       -3.1901952281   -0.5641664705    1.0271385600
C        2.3151622044   -1.1087835473    0.7502334169
C        1.0484100543   -0.8782832667    0.4447270773
H        0.9884086227    1.2465378421    0.8762120398
H       -1.4000721639    1.5102000408    1.0620046846
H       -1.5263123561   -1.5656954185    0.5360973022
H        3.0090049473   -1.9361889625    0.6903345182
H        0.4768725647   -1.6993282759    0.0014814009
13   
Iteration 92 Energy -341.00886528
C       -3.8204051654    0.5559276215    1.3640216922
N       -4.4969444718    1.4642863566    1.6585081567
C        0.3558069199    0.3855192404    0.7091031699
C       -0.9895897906    0.5335295128    0.8362890944
C       -1.9096365454   -0.5808952811    0.7881587449
N       -3.1827615210   -0.5703331453    1.0372795656
C        2.3029197763   -1.1194277607    0.7677276633
C        1.0464836822   -0.8716634905    0.4328122250
H        0.9904825871    1.2546690167    0.8687702605
H       -1.4015653250    1.5141482538    1.0615628724
H       -1.5143300877   -1.5665351833    0.5481249721
H        2.9906857932   -1.9530830890    0.7129620139
H        0.4788684820   -1.6809053950   -0.0396553667
13   
Iteration 91 Energy -341.00847108
C       -3.8173266062    0.5488898188    1.3679472199
N       -4.4967606687    1.4567414262    1.6570200008
C        0.3562137635    0.3931220126    0.7014336689
C       -0.9879038739    0.5380861651    0.8342180114
C       -1.9027915773   -0.5816946786    0.7946583130
N       -3.1750800246   -0.5766309990    1.0478057431
C        2.2891483045   -1.1308989645    0.7848667725
C        1.0457594946   -0.8659640071    0.4207132971
H        0.9899618291    1.2610590925    0.8628623031
H       -1.4027786355    1.5170239851    1.0584952685
H       -1.5021491818   -1.5650095306    0.5604195479
H        2.9703641920   -1.9693911114    0.7351914474
H        0.4833573183   -1.6600965521   -0.0799665295
13   
Iteration 90 Energy -341.00806308
C       -3.8144204278    0.5420439356    1.3712567051
N       -4.4966772366    1.4493609002    1.6552950146
C        0.3572294758    0.4001889311    0.6950665825
C       -0.9872988437    0.5424380433    0.8322678245
C       -1.8962154294   -0.5820838279    0.8006873334
N       -3.1677272523   -0.5827351575    1.0573349190
C        2.2754450884   -1.1418549013    0.8025039854
C        1.0441803668   -0.8591140442    0.4090415021
H        0.9919445814    1.2696056012    0.8529374988
H       -1.4045100847    1.5203498704    1.0597786030
H       -1.4901324865   -1.5661547321    0.5726304596
H        2.9504816394   -1.9864094390    0.7577538407
H        0.4877149429   -1.6403985229   -0.1208892047
13   
Iteration 89 Energy -341.00762589
C       -3.8109910300    0.5352355218    1.3752868226
N       -4.4957536502    1.4422258598    1.6539725954
C        0.3573341050    0.4079247877    0.6865726411
C       -0.9854460224    0.5463832510    0.8308781876
C       -1.8893534550   -0.5833413615    0.8077107874
N       -3.1600403543   -0.5889501200    1.0678525212
C        2.2597722769   -1.1538015497    0.8194231302
C        1.0440371229   -0.8534522706    0.3971002175
H        0.9904644981    1.2765904497    0.8476593849
H       -1.4058647287    1.5227553022    1.0556432334
H       -1.4779594730   -1.5648690805    0.5847326841
H        2.9287824196   -2.0026755232    0.7795492051
H        0.4950326249   -1.6187886097   -0.1607163464
13   
Iteration 88 Energy -341.00716988
C       -3.8077593866    0.5282868552    1.3784778661
N       -4.4950766283    1.4347942410    1.6524542737
C        0.3583720187    0.4148409538    0.6811669993
C       -0.9848556833    0.5502541821    0.8297937155
C       -1.8826581326   -0.5841015104    0.8138428524
N       -3.1526615576   -0.5951111861    1.0769403825
C        2.2439879505   -1.1655536127    0.8378843789
C        1.0430815462   -0.8463582190    0.3855044731
H        0.9920221079    1.2858379467    0.8334897617
H       -1.4076813921    1.5253599372    1.0587655240
H       -1.4657267477   -1.5660046884    0.5969573660
H        2.9065403951   -2.0202615377    0.8030727687
H        0.5024298437   -1.5967467050   -0.2026852978
13   
Iteration 87 Energy -341.00669457
C       -3.8040650481    0.5219671657    1.3826185308
N       -4.4935800758    1.4283975493    1.6509498666
C        0.3580291799    0.4228103458    0.6709860025
C       -0.9831106446    0.5536191002    0.8287624913
C       -1.8758258572   -0.5858112290    0.8215842186
N       -3.1450690757   -0.6010995673    1.0875647951
C        2.2264653778   -1.1778903480    0.8547480674
C        1.0435242085   -0.8407630482    0.3736984310
H        0.9896094461    1.2934013117    0.8292886073
H       -1.4092826484    1.5272846014    1.0544665251
H       -1.4536989674   -1.5652954703    0.6088960464
H        2.8838851628   -2.0362453175    0.8239025431
H        0.5131332760   -1.5751384370   -0.2418010610
13   
Iteration 86 Energy -341.00618972
C       -3.8004820516    0.5149067674    1.3861518286
N       -4.4922377703    1.4209066288    1.6501802022
C        0.3591094948    0.4295346296    0.6667238117
C       -0.9820653149    0.5566201859    0.8292186606
C       -1.8691031799   -0.5871929704    0.8281091155
N       -3.1376926641   -0.6073923693    1.0967560277
C        2.2078760726   -1.1907866119    0.8740676253
C        1.0434329733   -0.8336115215    0.3622456122
H        0.9901530392    1.3036016512    0.8105561148
H       -1.4109880423    1.5290256802    1.0576322625
H       -1.4415265943   -1.5663959003    0.6208950182
H        2.8585739271   -2.0546960217    0.8495545859
H        0.5249644443   -1.5492834913   -0.2864258013
13   
Iteration 85 Energy -341.00566642
C       -3.7966260854    0.5089570296    1.3901535233
N       -4.4904286664    1.4150322170    1.6483242022
C        0.3585946219    0.4376364075    0.6556212684
C       -0.9807872842    0.5593935651    0.8282721085
C       -1.8622642501   -0.5893410488    0.8365007389
N       -3.1302376224   -0.6132202266    1.1074308976
C        2.1880490269   -1.2037513862    0.8920271252
C        1.0448668049   -0.8271922825    0.3496148445
H        0.9873194185    1.3123851938    0.8036831248
H       -1.4128505797    1.5301366607    1.0563838357
H       -1.4294492165   -1.5667799384    0.6336850147
H        2.8335288371   -2.0715003671    0.8709047180
H        0.5402993292   -1.5265191672   -0.3269363377
13   
Iteration 84 Energy -341.00513251
C       -3.7933705568    0.5033556003    1.3940464037
N       -4.4887590515    1.4093911341    1.6480489977
C        0.3588782820    0.4434754226    0.6503509541
C       -0.9795847798    0.5606312958    0.8302482497
C       -1.8565884657   -0.5917758320    0.8446385791
N       -3.1241578580   -0.6186576969    1.1169968057
C        2.1670157154   -1.2176731079    0.9120692671
C        1.0466036162   -0.8207501471    0.3381826384
H        0.9853576011    1.3223473595    0.7843955539
H       -1.4144310870    1.5304149668    1.0581341407
H       -1.4192559223   -1.5685848213    0.6465859405
H        2.8078522886   -2.0890246478    0.8963139972
H        0.5604545515   -1.4979128693   -0.3743464638
13   
Iteration 83 Energy -341.00459371
C       -3.7898270568    0.4979659140    1.3981319859
N       -4.4868953662    1.4040604005    1.6471706278
C        0.3585260859    0.4504161556    0.6416828676
C       -0.9783917978    0.5621130999    0.8309887484
C       -1.8505641748   -0.5943584401    0.8532389113
N       -3.1176992050   -0.6240139342    1.1270538946
C        2.1452102407   -1.2316050071    0.9307930488
C        1.0490878089   -0.8141952535    0.3266717555
H        0.9820545845    1.3321224429    0.7707549395
H       -1.4163000745    1.5305981642    1.0582248197
H       -1.4086951679   -1.5699712741    0.6593969877
H        2.7813576715   -2.1064056909    0.9184531115
H        0.5821507852   -1.4714899202   -0.4168966343
13   
Iteration 82 Energy -341.00405972
C       -3.7866817485    0.4932405458    1.4022414142
N       -4.4851062758    1.3995012553    1.6468482105
C        0.3580691470    0.4563384621    0.6343628765
C       -0.9773289651    0.5626508592    0.8327951445
C       -1.8453310400   -0.5972630617    0.8620861350
N       -3.1121898934   -0.6288772135    1.1367536540
C        2.1225729086   -1.2460812668    0.9498702266
C        1.0523144443   -0.8078405666    0.3159402493
H        0.9781208818    1.3420353676    0.7533738229
H       -1.4180964341    1.5301267330    1.0590725430
H       -1.3994686518   -1.5720224404    0.6723091778
H        2.7549359957   -2.1236580491    0.9406973412
H        0.6082039653   -1.4429139681   -0.4606857315
13   
Iteration 81 Energy -341.00358812
C       -3.7840928934    0.4895505739    1.4060575091
N       -4.4835354989    1.3960635500    1.6467895653
C        0.3573920610    0.4612262336    0.6277287372
C       -0.9764736409    0.5625594154    0.8348348825
C       -1.8411346613   -0.6001318948    0.8704370398
N       -3.1078496487   -0.6328726401    1.1454273836
C        2.1014899849   -1.2594945698    0.9669312754
C        1.0558927942   -0.8022898847    0.3067573086
H        0.9737618303    1.3508554170    0.7368761289
H       -1.4197560385    1.5292617160    1.0596746942
H       -1.3921210343   -1.5742173295    0.6840178819
H        2.7312263402   -2.1389677844    0.9598132531
H        0.6352147392   -1.4163061457   -0.4996805955
13   
Iteration 80 Energy -341.00326328
C       -3.7824266897    0.4872441646    1.4088122843
N       -4.4824668216    1.3939916947    1.6469304860
C        0.3567797754    0.4643469377    0.6231773053
C       -0.9759360060    0.5621531740    0.8365217829
C       -1.8384944223   -0.6022814931    0.8764918793
N       -3.1051587199   -0.6354777172    1.1514950500
C        2.0862317018   -1.2692087181    0.9788454335
C        1.0587620942   -0.7984616687    0.3006331331
H        0.9702593914    1.3570039861    0.7244184567
H       -1.4209451791    1.5284085947    1.0600669908
H       -1.3875073485   -1.5759780353    0.6923473270
H        2.7145217818   -2.1497190745    0.9728636755
H        0.6563947764   -1.3967851880   -0.5269387404
13   
Iteration 79 Energy -341.00303877
C       -3.7813290857    0.4857683129    1.4107965494
N       -4.4817351466    1.3927042010    1.6471191020
C        0.3562657189    0.4663997607    0.6199873709
C       -0.9756011510    0.5617175870    0.8378116070
C       -1.8367860238   -0.6038532745    0.8808555107
N       -3.1034419865   -0.6372122278    1.1557598132
C        2.0752831770   -1.2761953298    0.9871664343
C        1.0609653580   -0.7958029933    0.2964851272
H        0.9675525639    1.3612801521    0.7153008662
H       -1.4218020359    1.5276939474    1.0602776390
H       -1.3845392561   -1.5773125806    0.6982570606
H        2.7027690443   -2.1572882595    0.9817973853
H        0.6724131574   -1.3826626387   -0.5459494017
13   
Iteration 78 Energy -341.00288303
C       -3.7805965284    0.4847994012    1.4122179051
N       -4.4812305754    1.3918842376    1.6473020670
C        0.3558666937    0.4677658324    0.6177566464
C       -0.9753842375    0.5613278668    0.8387739166
C       -1.8356623419   -0.6049919914    0.8839752120
N       -3.1023232626   -0.6383831723    1.1587592453
C        2.0674607911   -1.2812031440    0.9929909163
C        1.0626029383   -0.7939470843    0.2936555653
H        0.9655306312    1.3642686670    0.7086639062
H       -1.4224172226    1.5271342503    1.0604006327
H       -1.3825919396   -1.5783059918    0.7024454122
H        2.6944913924   -2.1626218292    0.9879697449
H        0.6842679952   -1.3724903855   -0.5592461061
13   
Iteration 77 Energy -341.00277458
C       -3.7800998714    0.4841518809    1.4132337510
N       -4.4808805888    1.3913492211    1.6474561636
C        0.3555649482    0.4686922601    0.6161846379
C       -0.9752422394    0.5610190406    0.8394778721
C       -1.8349081669   -0.6058094797    0.8862000367
N       -3.1015814073   -0.6391841410    1.1608740957
C        2.0618918391   -1.2847775425    0.9970788172
C        1.0637972391   -0.7926486978    0.2917049164
H        0.9640414309    1.3663571458    0.7038909929
H       -1.4228577584    1.5267163444    1.0604655458
H       -1.3812875854   -1.5790317346    0.7054079629
H        2.6886629008   -2.1663849109    0.9922536411
H        0.6929135933   -1.3652127295   -0.5685633692
13   
Iteration 76 Energy -341.00269883
C       -3.7797585184    0.4837116782    1.4139571718
N       -4.4806362341    1.3909916342    1.6475782564
C        0.3553409315    0.4693229437    0.6150811053
C       -0.9751486791    0.5607811609    0.8399880781