13   
IRC reactant Energy -341.01158747
C       -3.8425880230    0.6633633232    1.2003201600
N       -4.4614685495    1.6268661020    1.4426682009
C        0.3417350672    0.2892819769    0.8663363526
C       -1.0056490664    0.4405282800    0.9789502163
C       -1.9770281897   -0.6160981144    0.8148559423
N       -3.2680664092   -0.5091010832    0.9165667993
C        2.3944316237   -0.9859502004    0.4755969732
C        1.0724445231   -0.9330510586    0.5656120753
H        0.9606093841    1.1710167477    1.0147252171
H       -1.3980368283    1.4276985025    1.2103708953
H       -1.6274959825   -1.6203733077    0.5808517425
H        3.1521177852   -1.7311508641    0.2738207132
H        0.5090089990   -1.8577936472    0.4049897761
13   
IRC product Energy -341.00780108
C       -3.6769091238    0.4084653752    1.6798675571
N       -4.3918539948    1.3126295784    1.8838102644
C        0.3037245314    0.5264220455    0.3231769417
C       -1.0081448856    0.5095461925    0.6753551367
C       -1.7519440102   -0.6716600774    1.0523672945
N       -2.9742180489   -0.7122105650    1.4904274169
C        1.2052653167   -1.7254201619    0.9605144680
C        1.2704470727   -0.5746206296    0.3088015205
H        0.7087369832    1.4815138714   -0.0043918057
H       -1.5608639493    1.4458509497    0.6499661724
H       -1.2640887146   -1.6401446315    0.9477737993
H        1.8227542592   -2.6065821770    1.0738380722
H        2.1671088978   -0.3885531136   -0.2958417738
