13   
Iteration 0 Energy -340.97601627
C       -2.5165876875    1.5429896031    1.0983158274
N       -2.9838536449    2.6235679241    1.1481751814
C        1.1695480762    0.2829465232   -0.4889048239
C        0.0321585586    0.6470284699    0.1798748450
C       -1.1107137087   -0.1903149014    0.5077436424
N       -2.2069684557    0.2480214071    1.0258270869
C        2.1816449863   -1.5992777019   -0.5866877050
C        1.1959578618   -1.0037385406   -1.2052278158
H        2.1032316585    0.8204695257   -0.3898596931
H       -0.0425735439    1.6332282552    0.6016735445
H       -1.0173044660   -1.2910926867    0.4048658593
H        2.8063723896   -2.4282831506   -0.3875257235
H        0.3913449301   -1.2780514315   -1.9049275485
13   
Iteration 1 Energy -340.97741044
C       -2.5215644429    1.5402809309    1.1022270127
N       -2.9918391028    2.6183813079    1.1532550700
C        1.1686133532    0.2847710303   -0.4909552787
C        0.0331973827    0.6530365519    0.1791444021
C       -1.1068496448   -0.1854151204    0.5100853289
N       -2.2060835577    0.2470442431    1.0295863424
C        2.1784818067   -1.6134912398   -0.5887969917
C        1.2011448266   -1.0047261187   -1.2076586203
H        2.1009333175    0.8251217850   -0.3936081379
H       -0.0403188122    1.6416824741    0.5975557553
H       -1.0097943542   -1.2849282624    0.4081234655
H        2.7980764609   -2.4475942583   -0.3882343189
H        0.4001018468   -1.2730968943   -1.9126422370
13   
Iteration 2 Energy -340.97923937
C       -2.5284868565    1.5354150418    1.1082061553
N       -3.0028200027    2.6103092695    1.1605040471
C        1.1665822343    0.2879903824   -0.4934305096
C        0.0340993974    0.6614700353    0.1787111268
C       -1.1014231385   -0.1792346395    0.5140161984
N       -2.2047219108    0.2445896362    1.0356427823
C        2.1729577800   -1.6334026740   -0.5921492069
C        1.2076538708   -1.0053719715   -1.2105737805
H        2.0968042131    0.8327171435   -0.3988296259
H       -0.0380044177    1.6534469928    0.5924638691
H       -0.9988117685   -1.2768644889    0.4131620230
H        2.7850189414   -2.4748762884   -0.3901281122
H        0.4115592842   -1.2651022363   -1.9228358805
13   
Iteration 3 Energy -340.98156772
C       -2.5370847873    1.5284513242    1.1157032380
N       -3.0161619193    2.5996261216    1.1694861915
C        1.1634489553    0.2932523404   -0.4965623248
C        0.0349270430    0.6733514093    0.1778256008
C       -1.0937538762   -0.1711110915    0.5194552423
N       -2.2024275868    0.2407691614    1.0438127441
C        2.1642082908   -1.6617715548   -0.5961368358
C        1.2169500016   -1.0058147397   -1.2133688865
H        2.0902091708    0.8451365123   -0.4063867649
H       -0.0358178996    1.6701986591    0.5843028328
H       -0.9831144370   -1.2660021138    0.4205447739
H        2.7648963284   -2.5138577399   -0.3921365881
H        0.4282897029   -1.2533211895   -1.9361704422
13   
Iteration 4 Energy -340.98431574
C       -2.5472558630    1.5180470626    1.1244325870
N       -3.0324076025    2.5848915509    1.1800618180
C        1.1593162893    0.3021546221   -0.5003718021
C        0.0358738511    0.6898477971    0.1759560768
C       -1.0824987751   -0.1610511428    0.5266804195
N       -2.1979699559    0.2344737513    1.0543080926
C        2.1500700157   -1.7013881592   -0.6007529685
C        1.2300655551   -1.0050770217   -1.2148459498
H        2.0804069608    0.8656307936   -0.4176040895
H       -0.0342621809    1.6936375677    0.5711060651
H       -0.9601423224   -1.2520164083    0.4311757698
H        2.7330310165   -2.5689237131   -0.3948548549
H        0.4524965394   -1.2354328929   -1.9528117457
13   
Iteration 5 Energy -340.98665956
C       -2.5554636695    1.5068295415    1.1318133467
N       -3.0450396941    2.5705192241    1.1892249475
C        1.1550969059    0.3130398922   -0.5033504702
C        0.0361054216    0.7064495368    0.1734978149
C       -1.0708588221   -0.1523551217    0.5340744738
N       -2.1925375456    0.2269206751    1.0644442435
C        2.1332973013   -1.7427246000   -0.6046545478
C        1.2442043548   -1.0028175940   -1.2130725775
H        2.0689172720    0.8908996378   -0.4299236030
H       -0.0350101827    1.7175853380    0.5553407158
H       -0.9359504418   -1.2391639876    0.4429270619
H        2.6955788982   -2.6270505794   -0.3985529972
H        0.4793108251   -1.2155603803   -1.9675592713
13   
Iteration 6 Energy -340.98849737
C       -2.5609119905    1.4957903108    1.1376392675
N       -3.0523708283    2.5578337463    1.1971229679
C        1.1513354282    0.3251464789   -0.5054496864
C        0.0356192146    0.7217313332    0.1705393486
C       -1.0597942595   -0.1458019974    0.5411300811
N       -2.1866583180    0.2186774494    1.0735002329
C        2.1147354498   -1.7827844798   -0.6077912210
C        1.2585829615   -0.9989735381   -1.2080810704
H        2.0564058567    0.9195451612   -0.4433141670
H       -0.0380944970    1.7400268482    0.5378502442
H       -0.9124734279   -1.2285790166    0.4549256619
H        2.6543129468   -2.6842089301   -0.4038070933
H        0.5075924446   -1.1951089478   -1.9798438278
13   
Iteration 7 Energy -340.98992135
C       -2.5632271034    1.4852365208    1.1430212865
N       -3.0530097111    2.5474050065    1.2060781128
C        1.1478994879    0.3379250034   -0.5072874896
C        0.0342108321    0.7350310375    0.1668228142
C       -1.0498781325   -0.1417081180    0.5475025616
N       -2.1807952576    0.2097817786    1.0814330068
C        2.0945340497   -1.8204487540   -0.6093413720
C        1.2733110600   -0.9937183149   -1.2002972889
H        2.0423502887    0.9512286586   -0.4592412791
H       -0.0435922069    1.7601087054    0.5185297290
H       -0.8907418900   -1.2207034556    0.4662344163
H        2.6093367667   -2.7390212026   -0.4097582082
H        0.5387336067   -1.1752562603   -1.9911480402
13   
Iteration 8 Energy -340.99103206
C       -2.5620030830    1.4758671050    1.1497659346
N       -3.0457621418    2.5400160655    1.2198978012
C        1.1445565950    0.3502451815   -0.5099963972
C        0.0317993584    0.7456574020    0.1617680969
C       -1.0419077224   -0.1400588248    0.5522625395
N       -2.1754963100    0.2007438857    1.0878808803
C        2.0731850110   -1.8537291285   -0.6072574541
C        1.2881451554   -0.9877593163   -1.1907458591
H        2.0263980676    0.9843800740   -0.4798072270
H       -0.0511574304    1.7768116729    0.4974181421
H       -0.8723966239   -1.2157620031    0.4748128513
H        2.5611889138   -2.7892163092   -0.4141391342
H        0.5745172186   -1.1583340853   -2.0038133874
13   
Iteration 9 Energy -340.99196379
C       -2.5569422922    1.4679589703    1.1603005843
N       -3.0308042595    2.5353814588    1.2430139658
C        1.1413300830    0.3611035699   -0.5152498322
C        0.0289421595    0.7536864110    0.1545920385
C       -1.0356695469   -0.1401704401    0.5545100694
N       -2.1704020372    0.1921062391    1.0927879709
C        2.0495881046   -1.8815573396   -0.5987133960
C        1.3025469154   -0.9820654520   -1.1812585218
H        2.0086102525    1.0171467180   -0.5080878273
H       -0.0597578936    1.7899985534    0.4743762808
H       -0.8577356997   -1.2132200051    0.4785251606
H        2.5074210671   -2.8343166153   -0.4139197437
H        0.6174622113   -1.1457938496   -2.0214362290
13   
Iteration 10 Energy -340.99273998
C       -2.5494710688    1.4618924708    1.1738148125
N       -3.0138596478    2.5320413491    1.2711407028
C        1.1387477389    0.3691338203   -0.5229360718
C        0.0269219501    0.7591830614    0.1461787277
C       -1.0302115933   -0.1409645712    0.5552824515
N       -2.1645526813    0.1852243453    1.0974139297
C        2.0252142641   -1.9023750345   -0.5846406332
C        1.3148495272   -0.9778307646   -1.1742993511
H        1.9920750629    1.0440435804   -0.5405237434
H       -0.0673350712    1.7993424508    0.4522025371
H       -0.8461784867   -1.2121832052    0.4789963538
H        2.4512897961   -2.8721627870   -0.4113710843
H        0.6638091991   -1.1366427061   -2.0435480787
13   
Iteration 11 Energy -340.99350611
C       -2.5405593191    1.4572311731    1.1894510618
N       -2.9975724459    2.5290465800    1.3007583168
C        1.1364747342    0.3750407302   -0.5326692504
C        0.0257054340    0.7630865398    0.1369554828
C       -1.0245894045   -0.1418498413    0.5563332327
N       -2.1573187836    0.1800710586    1.1035360030
C        1.9989448152   -1.9189770045   -0.5660502723
C        1.3259864375   -0.9751163889   -1.1697355264
H        1.9765405370    1.0659694778   -0.5757549817
H       -0.0740918337    1.8063209268    0.4305098895
H       -0.8359528323   -1.2117689227    0.4793589695
H        2.3905626775   -2.9065462117   -0.4104782048
H        0.7153610501   -1.1288760893   -2.0698765867
13   
Iteration 12 Energy -340.99432253
C       -2.5307735893    1.4538025101    1.2058246924
N       -2.9826202134    2.5264462732    1.3286406606
C        1.1342093404    0.3795084020   -0.5436292665
C        0.0248650305    0.7658355288    0.1274962630
C       -1.0186200047   -0.1427615633    0.5586414590
N       -2.1488439665    0.1764298461    1.1117940259
C        1.9705379085   -1.9332384482   -0.5447733597
C        1.3366680053   -0.9735709943   -1.1667832811
H        1.9615762724    1.0841399084   -0.6118645790
H       -0.0806343759    1.8116959537    0.4093006551
H       -0.8263639301   -1.2117368770    0.4815552981
H        2.3264069864   -2.9384975867   -0.4144125628
H        0.7724599088   -1.1213819731   -2.0984446596
13   
Iteration 13 Energy -340.99509844
C       -2.5213164716    1.4518250327    1.2206718333
N       -2.9695797689    2.5249332663    1.3517242929
C        1.1319370429    0.3825288103   -0.5541519328
C        0.0240105515    0.7673374252    0.1189562813
C       -1.0132859683   -0.1437082001    0.5617238487
N       -2.1406643286    0.1742862709    1.1207540699
C        1.9430448245   -1.9453091699   -0.5248541048
C        1.3463059870   -0.9729093320   -1.1648226077
H        1.9480104434    1.0981495728   -0.6444995851
H       -0.0867624681    1.8153166936    0.3905064166
H       -0.8186184899   -1.2120722577    0.4851117284
H        2.2682721733   -2.9648048858   -0.4219572609
H        0.8286956340   -1.1146996790   -2.1244682563
13   
Iteration 14 Energy -340.99598557
C       -2.5102716083    1.4506290648    1.2375759411
N       -2.9549928945    2.5240815940    1.3771956413
C        1.1290931443    0.3848200366   -0.5664805416
C        0.0229656664    0.7682838252    0.1093689921
C       -1.0079126704   -0.1446768703    0.5647828132
N       -2.1316683530    0.1728635652    1.1308004603
C        1.9108502641   -1.9582782716   -0.5031776447
C        1.3564996971   -0.9731614805   -1.1629450227
H        1.9328314824    1.1112064379   -0.6810079427
H       -0.0933805975    1.8182748526    0.3704126144
H       -0.8118290489   -1.2125805642    0.4880711109
H        2.2067417876   -2.9902581629   -0.4319015991
H        0.8940224874   -1.1083241211   -2.1515408812
13   
Iteration 15 Energy -340.99689218
C       -2.4987925485    1.4504959691    1.2550605749
N       -2.9392335560    2.5244608224    1.4037269132
C        1.1253072823    0.3860652442   -0.5791825546
C        0.0210735378    0.7685021496    0.0995846852
C       -1.0040985117   -0.1456411643    0.5667515279
N       -2.1237894925    0.1722484933    1.1401457978
C        1.8776598081   -1.9708485207   -0.4821271694
C        1.3660727039   -0.9743399784   -1.1605753188
H        1.9166494319    1.1220856554   -0.7177763256
H       -0.1004384683    1.8201941884    0.3510184158
H       -0.8081295854   -1.2132817173    0.4886220923
H        2.1504623994   -3.0116785428   -0.4408335405
H        0.9616699754   -1.1036515526   -2.1752385573
13   
Iteration 16 Energy -340.99780494
C       -2.4873734133    1.4513861090    1.2728367331
N       -2.9225742465    2.5259893794    1.4317812247
C        1.1205734015    0.3864477088   -0.5921655891
C        0.0182472811    0.7683911438    0.0894813282
C       -1.0022364553   -0.1462653327    0.5668291970
N       -2.1175885317    0.1724777176    1.1478219827
C        1.8446246006   -1.9822468651   -0.4618312520
C        1.3746911231   -0.9762229263   -1.1576333593
H        1.8997129467    1.1307959272   -0.7544988084
H       -0.1077727950    1.8214950666    0.3323645246
H       -0.8079558846   -1.2138217991    0.4855309043
H        2.1007747731   -3.0288154619   -0.4471110443
H        1.0296616311   -1.1011333227   -2.1946287099
13   
Iteration 17 Energy -340.99869755
C       -2.4761858433    1.4529179808    1.2906064606
N       -2.9051910633    2.5282696576    1.4608359276
C        1.1150497088    0.3861833459   -0.6051839838
C        0.0145532965    0.7679382151    0.0792677699
C       -1.0021971282   -0.1466976646    0.5652165655
N       -2.1130378063    0.1732403515    1.1539333188
C        1.8129400011   -1.9919779066   -0.4427511085
C        1.3824616022   -0.9784208028   -1.1544119805
H        1.8823093814    1.1376653138   -0.7903400123
H       -0.1152992994    1.8222087156    0.3146656117
H       -0.8109543605   -1.2143041282    0.4791738969
H        2.0584923231   -3.0418673760   -0.4504416212
H        1.0966431370   -1.1003509334   -2.2096588202
13   
Iteration 18 Energy -340.99955424
C       -2.4652160704    1.4547550741    1.3082390190
N       -2.8873344196    2.5308691835    1.4904357538
C        1.1090169751    0.3854583110   -0.6181372702
C        0.0103083937    0.7672307899    0.0691244945
C       -1.0034866607   -0.1469857248    0.5623101764
N       -2.1097041835    0.1743177325    1.1588335194
C        1.7828557017   -2.0001496704   -0.4252298182
C        1.3894343812   -0.9807057702   -1.1511941041
H        1.8648149335    1.1429826990   -0.8249675572
H       -0.1227666026    1.8224756956    0.2979675212
H       -0.8163320843   -1.2147163069    0.4702745093
H        2.0227427191   -3.0516666991   -0.4510988975
H        1.1617599398   -1.1007505182   -2.2207045627
13   
Iteration 19 Energy -341.00036774
C       -2.4544950234    1.4566378235    1.3257240753
N       -2.8692767960    2.5334105601    1.5204730347
C        1.1026437901    0.3845267569   -0.6309822337
C        0.0056884954    0.7665133703    0.0590825633
C       -1.0057420538   -0.1470668755    0.5583284854
N       -2.1072603235    0.1755665036    1.1627521666
C        1.7542344114   -2.0069616632   -0.4093362217
C        1.3955437161   -0.9828937195   -1.1480834320
H        1.8475085396    1.1470772919   -0.8582491839
H       -0.1300903726    1.8225812763    0.2821853315
H       -0.8234221554   -1.2149355993    0.4592807009
H        1.9921280047   -3.0590012740   -0.4496596336
H        1.2242881053   -1.1019126736   -2.2281421444
13   
Iteration 20 Energy -341.00126640
C       -2.4426051560    1.4592511226    1.3455109137
N       -2.8481914766    2.5366297392    1.5556965744
C        1.0948171311    0.3832254367   -0.6453955324
C       -0.0001839113    0.7658799195    0.0474941611
C       -1.0098814435   -0.1466401905    0.5521999071
N       -2.1058960261    0.1776094717    1.1656603585
C        1.7240947479   -2.0135183618   -0.3921986944
C        1.4018102864   -0.9854404484   -1.1437647932
H        1.8276805852    1.1504305914   -0.8950672387
H       -0.1384389996    1.8227618657    0.2647960588
H       -0.8341403776   -1.2146459975    0.4438532816
H        1.9635842114   -3.0650718624   -0.4472480117
H        1.2929649299   -1.1047200415   -2.2317925029
13   
Iteration 21 Energy -341.00216716
C       -2.4312683999    1.4627319906    1.3654265244
N       -2.8257288605    2.5404791338    1.5941118164
C        1.0859965318    0.3815103559   -0.6592315429
C       -0.0072902645    0.7657239108    0.0354336719
C       -1.0170336848   -0.1453052123    0.5429285384
N       -2.1074767680    0.1807551386    1.1651802897
C        1.6990295413   -2.0186597104   -0.3729906928
C        1.4076280824   -0.9885169919   -1.1363137575
H        1.8069439362    1.1522214453   -0.9318067030
H       -0.1473616516    1.8233007320    0.2477366981
H       -0.8497134467   -1.2133750988    0.4227441156
H        1.9454280241   -3.0681987005   -0.4447792737
H        1.3593675553   -1.1112800059   -2.2282347292
13   
Iteration 22 Energy -341.00288577
C       -2.4262721559    1.4700701154    1.3796292746
N       -2.8073061061    2.5477853286    1.6298658806
C        1.0756958598    0.3785948921   -0.6648186151
C       -0.0163610972    0.7672211791    0.0265943956
C       -1.0319994489   -0.1413354219    0.5293597852
N       -2.1187205600    0.1878347068    1.1553637585
C        1.7015325433   -2.0241164946   -0.3496234268
C        1.4119535131   -0.9932504695   -1.1163188344
H        1.7873128932    1.1499247535   -0.9596518671
H       -0.1562759680    1.8252319010    0.2362765117
H       -0.8754812201   -1.2093560788    0.3950589304
H        1.9655448641   -3.0667494382   -0.4606952117
H        1.4031259388   -1.1266994813   -2.2080463164
13   
Iteration 23 Energy -341.00284001
C       -2.4312051002    1.4771769908    1.3795616916
N       -2.8029699046    2.5538271483    1.6473526567
C        1.0713432711    0.3747301224   -0.6570475701
C       -0.0207201462    0.7699213035    0.0275724554
C       -1.0476309106   -0.1361268551    0.5149871925
N       -2.1359541716    0.1954192918    1.1355357621
C        1.7422491822   -2.0230211552   -0.3297231090
C        1.4101327520   -0.9998916304   -1.0923375555
H        1.7831596697    1.1419621977   -0.9622088559
H       -0.1564269127    1.8273936756    0.2421067037
H       -0.8994173592   -1.2038273855    0.3687351557
H        2.0221941613   -3.0559151189   -0.4904185657
H        1.3848147986   -1.1527345533   -2.1814538598
13   
Iteration 24 Energy -341.00289186
C       -2.4286517057    1.4735402391    1.3796513344
N       -2.8055857675    2.5503902747    1.6395822192
C        1.0744891117    0.3766131556   -0.6612047972
C       -0.0175601174    0.7691828342    0.0271151497
C       -1.0391275276   -0.1380874506    0.5215630874
N       -2.1269170387    0.1917781830    1.1447648642
C        1.7211923305   -2.0229866331   -0.3386227971
C        1.4096502546   -0.9971242397   -1.1045524812
H        1.7872700025    1.1448997846   -0.9612508950
H       -0.1547772442    1.8268161194    0.2401821090
H       -0.8865018623   -1.2059206038    0.3809758997
H        1.9926569731   -3.0609879825   -0.4772756752
H        1.3915331297   -1.1421225512   -2.1948211115
13   
Iteration 25 Energy -341.00289052
C       -2.4312924256    1.4713313298    1.3782628040
N       -2.8068629511    2.5479392183    1.6414946772
C        1.0750505083    0.3758782236   -0.6600239825
C       -0.0186396477    0.7678863494    0.0283821085
C       -1.0418999912   -0.1391922491    0.5178964314
N       -2.1313682801    0.1900832652    1.1392907423
C        1.7270917343   -2.0146648852   -0.3267207931
C        1.4085357718   -0.9992311061   -1.1021413665
H        1.7877798903    1.1440626766   -0.9601784049
H       -0.1551023573    1.8250681024    0.2442029093
H       -0.8902994096   -1.2068157343    0.3741034093
H        2.0034048434   -3.0531308145   -0.4530040290
H        1.3860194022   -1.1522552603   -2.1911921936
13   
Iteration 26 Energy -341.00289472
C       -2.4296950037    1.4721699256    1.3792071873
N       -2.8061833118    2.5488119659    1.6408813535
C        1.0751812514    0.3764736797   -0.6610708144
C       -0.0177199282    0.7686985519    0.0275577996
C       -1.0399858583   -0.1385540541    0.5196547010
N       -2.1286003672    0.1907630604    1.1422159706
C        1.7229605257   -2.0185373492   -0.3329728630
C        1.4088138168   -0.9980275219   -1.1040277617
H        1.7881748800    1.1445568328   -0.9610347601
H       -0.1545608135    1.8260796071    0.2421519628
H       -0.8877020175   -1.2062564663    0.3773989865
H        1.9961244128   -3.0570513476   -0.4650831155
H        1.3886118350   -1.1471352170   -2.1937075025
13   
Iteration 27 Energy -341.00290472
C       -2.4314002092    1.4716329376    1.3785346941
N       -2.8066050866    2.5483683271    1.6416854861
C        1.0743537413    0.3760402308   -0.6598415289
C       -0.0191583748    0.7678205121    0.0281788512
C       -1.0424933459   -0.1392007174    0.5182241735
N       -2.1317742723    0.1902571091    1.1397059574
C        1.7269215705   -2.0158467768   -0.3264660754
C        1.4084472085   -0.9992006496   -1.1007276756
H        1.7869604210    1.1443656671   -0.9602098745
H       -0.1558001385    1.8250770317    0.2436195164
H       -0.8909855917   -1.2068198733    0.3744645530
H        2.0041932430   -3.0539884660   -0.4533453296
H        1.3880681095   -1.1517523148   -2.1898873811
13   
Iteration 28 Energy -341.00288443
C       -2.4349106491    1.4707057207    1.3763450959
N       -2.8096273864    2.5473309716    1.6406977091
C        1.0739216976    0.3749875604   -0.6570658639
C       -0.0204025450    0.7669773688    0.0300330943
C       -1.0451410994   -0.1397984515    0.5169717949
N       -2.1359341502    0.1895016872    1.1360731901
C        1.7336265871   -2.0117587358   -0.3168608821
C        1.4073321752   -1.0014816745   -1.0959807446
H        1.7871378499    1.1428971138   -0.9569662274
H       -0.1564818918    1.8241008356    0.2465862967
H       -0.8939095837   -1.2073242052    0.3720358926
H        2.0142527340   -3.0497062930   -0.4386408893
H        1.3847029628   -1.1585130720   -2.1843759771
13   
Iteration 29 Energy -341.00284436
C       -2.4384843401    1.4708466547    1.3745956104
N       -2.8113144287    2.5476101980    1.6410196907
C        1.0722681327    0.3731550240   -0.6535580801
C       -0.0223241351    0.7658408815    0.0324998302
C       -1.0496028567   -0.1402440826    0.5152770784
N       -2.1417325201    0.1896017293    1.1316869544
C        1.7446341177   -2.0092033730   -0.3104764544
C        1.4051892699   -1.0042816306   -1.0908686006
H        1.7862702730    1.1405019387   -0.9530242613
H       -0.1566522251    1.8227160621    0.2513432737
H       -0.8998092616   -1.2076958886    0.3681887886
H        2.0331195293   -3.0455451545   -0.4271826319
H        1.3776810863   -1.1653012736   -2.1785134913
13   
Iteration 30 Energy -341.00275177
C       -2.4485035673    1.4698766241    1.3652713712
N       -2.8221283224    2.5465501576    1.6309968168
C        1.0728921739    0.3699803229   -0.6438456759
C       -0.0240380041    0.7641737003    0.0380422044
C       -1.0546104690   -0.1413290937    0.5142685703
N       -2.1512907680    0.1887232092    1.1225821005
C        1.7678669116   -2.0011763776   -0.2889552953
C        1.4064079177   -1.0096875550   -1.0761540839
H        1.7880564187    1.1361984025   -0.9432507744
H       -0.1577872948    1.8210365570    0.2573470957
H       -0.9044984690   -1.2088180578    0.3671912810
H        2.0625735489   -3.0364250423   -0.4007224856
H        1.3720150489   -1.1782454821   -2.1623790082
13   
Iteration 31 Energy -341.00260559
C       -2.4655764381    1.4701112749    1.3478146724
N       -2.8413934144    2.5470682160    1.6091320406
C        1.0735231246    0.3654969087   -0.6263537368
C       -0.0277047337    0.7620270230    0.0458778703
C       -1.0633152164   -0.1426324991    0.5137273101
N       -2.1665138819    0.1885520229    1.1090718646
C        1.7999716904   -1.9977442868   -0.2637040249
C        1.4105590970   -1.0163165575   -1.0503726157
H        1.7902334023    1.1305046718   -0.9254840094
H       -0.1625386974    1.8192090424    0.2628778167
H       -0.9120891765   -1.2103643026    0.3693029675
H        2.1101446094   -3.0290613691   -0.3683762686
H        1.3664297986   -1.1940452589   -2.1348425471
13   
Iteration 32 Energy -341.00245943
C       -2.4645249601    1.3605158654    1.4407240591
N       -2.8355865505    2.4227470762    1.7617062107
C        1.0606870473    0.3959555281   -0.6081037614
C       -0.0400444848    0.7489346043    0.0883925898
C       -1.0594053990   -0.1928615504    0.5149101989
N       -2.1635021715    0.0943791705    1.1315632953
C        1.8409625004   -1.9578064565   -0.3350122310
C        1.4078196725   -0.9667291009   -1.0846821719
H        1.7638524737    1.1818072130   -0.8842583690
H       -0.1882631948    1.7931743245    0.3535878550
H       -0.8962276860   -1.2494637819    0.3124913388
H        2.1653730638   -2.9805085266   -0.4750651165
H        1.3283749516   -1.1146645984   -2.1718358932
13   
Iteration 33 Energy -341.00221787
C       -2.5382374974    1.3473093835    1.4320944749
N       -2.9280638095    2.4052331307    1.7455710007
C        1.0378337692    0.3907113209   -0.5519849778
C       -0.0792292841    0.7391629209    0.1216249460
C       -1.1048374312   -0.2022563906    0.5344860110
N       -2.2206533773    0.0836426635    1.1301693206
C        1.8796873399   -1.9392920011   -0.2661378069
C        1.4071739547   -0.9705214681   -1.0208720151
H        1.7408569702    1.1808913669   -0.8156503965
H       -0.2360164139    1.7837602854    0.3807914030
H       -0.9366844456   -1.2592240508    0.3378731146
H        2.2256853744   -2.9552388088   -0.4054458272
H        1.3241395557   -1.1302217588   -2.1059945817
13   
Iteration 34 Energy -341.00188530
C       -2.6964207609    1.2068507594    1.5682628481
N       -3.1000678336    2.2494115474    1.9129483063
C        0.9059698821    0.4391015991   -0.4029379063
C       -0.2232899914    0.7228557360    0.2758859452
C       -1.2226328767   -0.2692855048    0.6319401244
N       -2.3535413625   -0.0399985852    1.2234601328
C        1.8578560435   -1.8616840680   -0.2229094689
C        1.3159418527   -0.8905966787   -0.9267682061
H        1.5854497426    1.2607606566   -0.6292633331
H       -0.4188783355    1.7492819100    0.5772009562
H       -1.0201895619   -1.3115182027    0.3915271025
H        2.2484424182   -2.8557774133   -0.3941037055
H        1.1962337064   -1.0246286161   -2.0118280621
13   
Iteration 35 Energy -341.00184633
C       -2.7117927880    1.2095544237    1.5637947872
N       -3.1353964399    2.2440843705    1.9094389457
C        0.9159434657    0.4349186576   -0.4020422913
C       -0.2140083136    0.7282920366    0.2742190669
C       -1.2181692958   -0.2586375750    0.6317237771
N       -2.3516935151   -0.0319958099    1.2191042376
C        1.8567612032   -1.8700014727   -0.2207044631
C        1.3163259713   -0.8985607068   -0.9246568977
H        1.6031608949    1.2506081058   -0.6270568615
H       -0.4033972079    1.7566288256    0.5732313971
H       -1.0141540141   -1.3013745364    0.3960924972
H        2.2385686582   -2.8670957700   -0.3951746414
H        1.1876273385   -1.0351948488   -2.0085355004
13   
Iteration 36 Energy -341.00163328
C       -2.7709904256    1.1502111160    1.5757541585
N       -3.1950192750    2.1877314927    1.9117406756
C        0.8861800629    0.3662670374   -0.3164545407
C       -0.2600098505    0.6590328537    0.3329905440
C       -1.2710647668   -0.3262868811    0.6719502029
N       -2.4140745898   -0.0944191782    1.2389517699
C        1.8667868432   -1.9165305516   -0.1144197816
C        1.3019004317   -0.9675214761   -0.8286630737
H        1.5756666159    1.1838048991   -0.5265280140
H       -0.4519208907    1.6871920967    0.6306531099
H       -1.0686577322   -1.3689321827    0.4336911665
H        2.2606837628   -2.9107323384   -0.2794350572
H        1.1643142222   -1.1191404562   -1.9092464065
13   
Iteration 37 Energy -341.00140120
C       -2.7761194490    1.0926442509    1.6210744723
N       -3.2163543462    2.1173204061    1.9749958202
C        0.8861826564    0.3789717596   -0.2979927882
C       -0.2573691149    0.6535850311    0.3609274237
C       -1.2574075693   -0.3483225140    0.6885129116
N       -2.3997797567   -0.1404748437    1.2644192604
C        1.8938829655   -1.9032870664   -0.1641804135
C        1.2990034454   -0.9444779141   -0.8406286009
H        1.5766697725    1.2005145430   -0.4893945937
H       -0.4559860516    1.6743400099    0.6793569800
H       -1.0408576237   -1.3848667965    0.4371592153
H        2.2819083707   -2.8943958904   -0.3576681282
H        1.1140070718   -1.0885087087   -1.9155207199
13   
Iteration 38 Energy -341.00149087
C       -2.7972862548    1.0433172031    1.6867251346
N       -3.2353529779    2.0532708308    2.0836859699
C        0.8564115779    0.4020638520   -0.2854666796
C       -0.2902501291    0.6535306162    0.3824854849
C       -1.2828170794   -0.3608150482    0.6877597567
N       -2.4210527068   -0.1737841971    1.2801209424
C        1.8957176209   -1.8528616799   -0.1508275428
C        1.2871517262   -0.9115178195   -0.8381658598
H        1.5322872704    1.2362251266   -0.4727234982
H       -0.5003099940    1.6668468502    0.7168105688
H       -1.0665944930   -1.3887992246    0.4029040305
H        2.3109686611   -2.8342976724   -0.3383545673
H        1.1127213849   -1.0561109291   -1.9145443813
13   
Iteration 39 Energy -341.00183453
C       -2.7961711451    1.0417595187    1.7057846535
N       -3.2379031322    2.0460324822    2.1128958501
C        0.8485174571    0.4094919726   -0.2962850441
C       -0.2974492592    0.6611636790    0.3698284277
C       -1.2863507470   -0.3549188454    0.6856729860
N       -2.4183674086   -0.1717994633    1.2900153796
C        1.8628309743   -1.8647430276   -0.1361213469
C        1.2932713991   -0.9045139949   -0.8332391253
H        1.5184453009    1.2460579155   -0.4955204528
H       -0.5123785808    1.6770196393    0.6935745355
H       -1.0714698140   -1.3820665482    0.3970956650
H        2.2778754080   -2.8467226597   -0.3210701184
H        1.1694516387   -1.0375474116   -1.9180706032
13   
Iteration 40 Energy -341.00191443
C       -2.9138680906    0.8734462570    1.8637731775
N       -3.3621543495    1.8575054491    2.3096351380
C        0.7012627052    0.5167984351   -0.1764909993
C       -0.4520663566    0.6643614274    0.5004985367
C       -1.3802594383   -0.4200782487    0.7753528902