13   
Iteration 3 Energy -340.92654038
C       -3.0228334817   -0.2791230387   -0.1960484023
N       -1.8986369285   -0.0244813410    0.0535715289
C        0.3971152249   -0.5323423180   -0.6117304191
C       -0.5257833200    0.2352620700    0.3488752762
C       -0.2339195984   -0.1761826636    1.8020803158
N        0.3347784322    0.5747918858    2.6212104707
C        0.9060839525    0.1086461178   -1.8721643659
C        1.7743588060   -0.0170435397   -0.9179605245
H        0.2071121545   -1.6106299409   -0.5854995062
H       -0.3408236869    1.3092598377    0.2526674715
H       -0.5281289179   -1.2012995941    2.0761370437
H        0.6475094878    0.4112766755   -2.8756130291
H        2.7775756998    0.1033661518   -0.5376757374
13   
Iteration 2 Energy -340.92653942
C       -3.0226671641   -0.2761497477   -0.1983395912
N       -1.8982227149   -0.0236402720    0.0521856952
C        0.3976747396   -0.5326454967   -0.6109786760
C       -0.5253380203    0.2352832571    0.3489599147
C       -0.2356073836   -0.1762297631    1.8025293856
N        0.3316281062    0.5742591489    2.6230918983
C        0.9045683846    0.1070288981   -1.8729054103
C        1.7737240500   -0.0153764530   -0.9190653682
H        0.2091250374   -1.6111368842   -0.5831602048
H       -0.3396427144    1.3091832912    0.2530556353
H       -0.5302452190   -1.2014006655    2.0756608077
H        0.6447164354    0.4074633804   -2.8766803907
H        2.7770314196    0.1074874875   -0.5398127989
13   
Iteration 1 Energy -340.92653833
C       -3.0211237022   -0.2739265806   -0.2006470723
N       -1.8963817782   -0.0235435633    0.0509938573
C        0.3991100356   -0.5333678365   -0.6105274986
C       -0.5238830140    0.2347949663    0.3494175953
C       -0.2383705571   -0.1765919125    1.8040259716
N        0.3256748403    0.5761013326    2.6247507344
C        0.9027096271    0.1065039064   -1.8736424510
C        1.7739837886   -0.0145891175   -0.9215327041
H        0.2114687903   -1.6120210932   -0.5822682984
H       -0.3376918908    1.3086639995    0.2536392545
H       -0.5345985444   -1.2012226070    2.0779270100
H        0.6404863018    0.4063160448   -2.8769918475
H        2.7779327466    0.1096797992   -0.5444362544
13   
Iteration 0 Energy -340.92653663
C       -3.0198978293   -0.2737163628   -0.2017234076
N       -1.8950835576   -0.0239119173    0.0505433981
C        0.4004930603   -0.5329475691   -0.6103006780
C       -0.5230057626    0.2348616353    0.3498715476
C       -0.2401152781   -0.1757304718    1.8055243511
N        0.3206761935    0.5759372485    2.6294935456
C        0.9018982975    0.1062911044   -1.8746748882
C        1.7750135519   -0.0146036656   -0.9242687034
H        0.2130299251   -1.6116089852   -0.5814919578
H       -0.3371874551    1.3087767379    0.2539222588
H       -0.5379874630   -1.2001584652    2.0785607942
H        0.6378931032    0.4055312074   -2.8777321148
H        2.7797627510    0.1095994287   -0.5492786827
13   
Iteration 44 Energy -340.92653618
C       -3.0198181433   -0.2735833875   -0.2016861869
N       -1.8951986215   -0.0241028809    0.0505261517
C        0.4005830113   -0.5329091294   -0.6103957255
C       -0.5227963628    0.2349538840    0.3498451225
C       -0.2402534034   -0.1757698278    1.8056243087
N        0.3206270103    0.5759517794    2.6295872010
C        0.9018185228    0.1062657374   -1.8747424659
C        1.7750490722   -0.0146138067   -0.9243716870
H        0.2132442099   -1.6115574298   -0.5812874108
H       -0.3376712840    1.3088700683    0.2536940829
H       -0.5384262135   -1.2000134378    2.0793972651
H        0.6381223065    0.4055242120   -2.8778066475
H        2.7797791476    0.1096778033   -0.5494778287
13   
Iteration 43 Energy -340.92652631
C       -3.0129756551   -0.2723768983   -0.2152094374
N       -1.8916908442   -0.0192082081    0.0485988514
C        0.4048840467   -0.5337066675   -0.6019658943
C       -0.5200427246    0.2365831356    0.3542462540
C       -0.2414447717   -0.1765337549    1.8096069559
N        0.3164694014    0.5743809204    2.6361718900
C        0.8887269387    0.0927933464   -1.8791776721
C        1.7706918437   -0.0036263824   -0.9340641098
H        0.2301645148   -1.6140089787   -0.5571406211
H       -0.3314409851    1.3098627864    0.2586295840
H       -0.5374958952   -1.2024216941    2.0794655057
H        0.6131928267    0.3734752713   -2.8844449650
H        2.7769679923    0.1372848894   -0.5692760699
13   
Iteration 42 Energy -340.92651454
C       -3.0095162106   -0.2684720153   -0.2226440707
N       -1.8885986644   -0.0191586913    0.0468479610
C        0.4095079401   -0.5346155672   -0.5971493974
C       -0.5181435503    0.2355663775    0.3567034877
C       -0.2449064168   -0.1759153451    1.8139174899
N        0.3155764251    0.5722991015    2.6410980155
C        0.8806566649    0.0851909329   -1.8824101092
C        1.7686124402    0.0043714161   -0.9415459886
H        0.2440826164   -1.6159876352   -0.5425156186
H       -0.3296842031    1.3094330191    0.2611810043
H       -0.5480640060   -1.1990682931    2.0847120442
H        0.5972479795    0.3549627638   -2.8885937224
H        2.7758546519    0.1568122640   -0.5839019507
13   
Iteration 41 Energy -340.92649850
C       -3.0056933218   -0.2659075512   -0.2314582155
N       -1.8864359162   -0.0177701875    0.0446252755
C        0.4130373602   -0.5347192064   -0.5907494924
C       -0.5162121638    0.2370169113    0.3599950961
C       -0.2477489033   -0.1765060122    1.8169572771
N        0.3165997519    0.5694518451    2.6438021360
C        0.8719710879    0.0773647005   -1.8837548098
C        1.7661487341    0.0119181183   -0.9473861381
H        0.2564009845   -1.6167800224   -0.5264691518
H       -0.3263170281    1.3097929656    0.2645186500
H       -0.5569522039   -1.1983379243    2.0885708485
H        0.5805456615    0.3356421379   -2.8904291433
H        2.7741369765    0.1750270915   -0.5970120027
13   
Iteration 40 Energy -340.92647529
C       -3.0010340091   -0.2642897529   -0.2429353586
N       -1.8845087892   -0.0155127892    0.0441109344
C        0.4161215883   -0.5352596011   -0.5861618799
C       -0.5157990975    0.2357940798    0.3628308189
C       -0.2504923374   -0.1746388069    1.8220515741
N        0.3199673062    0.5656409477    2.6493620828
C        0.8646353447    0.0692197762   -1.8869440693
C        1.7623335300    0.0202939779   -0.9531950066
H        0.2689499155   -1.6181285721   -0.5117825475
H       -0.3258378298    1.3096162298    0.2675296788
H       -0.5675732265   -1.1930423513    2.0937936816
H        0.5674759833    0.3156001824   -2.8952596717
H        2.7703462664    0.1955630315   -0.6082319248
13   
Iteration 39 Energy -340.92643132
C       -2.9965734712   -0.2591756928   -0.2564433663
N       -1.8806382198   -0.0151475268    0.0386067108
C        0.4234273221   -0.5351959794   -0.5737511027
C       -0.5137380222    0.2383413715    0.3680085448
C       -0.2585599088   -0.1748662532    1.8274833943
N        0.3275472917    0.5584049534    2.6505779170
C        0.8508654155    0.0563129447   -1.8867052843
C        1.7583772937    0.0347180799   -0.9612651145
H        0.2925448139   -1.6188412175   -0.4830568194
H       -0.3212337891    1.3112420492    0.2729439934
H       -0.5964957552   -1.1859011885    2.1043818568
H        0.5394803969    0.2832084241   -2.8950274828
H        2.7668475169    0.2293528637   -0.6285902552
13   
Iteration 38 Energy -340.92637023
C       -2.9901564104   -0.2566927114   -0.2738651096
N       -1.8790025302   -0.0126142394    0.0353390467
C        0.4287558309   -0.5347283791   -0.5637461986
C       -0.5135434721    0.2386643596    0.3728667402
C       -0.2654675571   -0.1716906265    1.8345088276
N        0.3383552101    0.5499204215    2.6548960048
C        0.8394544039    0.0429234142   -1.8884349488
C        1.7523832509    0.0490178724   -0.9680062899
H        0.3142645643   -1.6186170575   -0.4563836417
H       -0.3214900031    1.3111013124    0.2769144687
H       -0.6233165105   -1.1749015434    2.1150382907
H        0.5194907925    0.2494566969   -2.8984449270
H        2.7597737967    0.2635293959   -0.6445183172
13   
Iteration 37 Energy -340.92629549
C       -2.9855052007   -0.2546098545   -0.2886549045
N       -1.8760723177   -0.0114876379    0.0311896516
C        0.4346462048   -0.5340224111   -0.5527010180
C       -0.5136565105    0.2405443383    0.3772709006
C       -0.2729200492   -0.1694128013    1.8403451719
N        0.3498667985    0.5412072594    2.6561019116
C        0.8284422782    0.0307647715   -1.8877545582
C        1.7472831569    0.0624981422   -0.9739344545
H        0.3354079688   -1.6178877244   -0.4300695239
H       -0.3201147683    1.3136022294    0.2812199212
H       -0.6536433904   -1.1622603070    2.1259843602
H        0.4979317478    0.2184486405   -2.8981835107
H        2.7539183800    0.2950821785   -0.6603048788
13   
Iteration 36 Energy -340.92620945
C       -2.9805059884   -0.2527655866   -0.3032469639
N       -1.8753030349   -0.0101077313    0.0273003395
C        0.4393736442   -0.5327889418   -0.5427926313
C       -0.5136571704    0.2422826359    0.3815349511
C       -0.2804223486   -0.1657903707    1.8460426038
N        0.3619536336    0.5322754977    2.6575953458
C        0.8189632436    0.0187948628   -1.8873774464
C        1.7419375706    0.0752426939   -0.9786134743
H        0.3548767660   -1.6159732429   -0.4057013387
H       -0.3204485131    1.3139759821    0.2838244472
H       -0.6827267917   -1.1494334845    2.1368900276
H        0.4815599483    0.1882342953   -2.8984921724
H        2.7467832319    0.3251219688   -0.6732956164
13   
Iteration 35 Energy -340.92611467
C       -2.9764404490   -0.2519708669   -0.3165667705
N       -1.8729654429   -0.0086567309    0.0238095900
C        0.4443251342   -0.5315730490   -0.5328818905
C       -0.5151441871    0.2440154763    0.3849787965
C       -0.2870189956   -0.1625904853    1.8511437770
N        0.3740897239    0.5231875517    2.6577670230
C        0.8103378030    0.0077677418   -1.8860542608
C        1.7367627575    0.0871742380   -0.9828761207
H        0.3735373955   -1.6140525649   -0.3817719930
H       -0.3213955428    1.3171738873    0.2872297786
H       -0.7111508648   -1.1343992073    2.1470889564
H        0.4649312812    0.1597458221   -2.8975704863
H        2.7402197230    0.3530686357   -0.6857607937
13   
Iteration 34 Energy -340.92600998
C       -2.9720816049   -0.2510184335   -0.3294201830
N       -1.8730003598   -0.0074316533    0.0198686500
C        0.4483816577   -0.5298109316   -0.5235416415
C       -0.5148337770    0.2465505303    0.3890771319
C       -0.2945624838   -0.1585895680    1.8561452143
N        0.3864417356    0.5139018705    2.6577826482
C        0.8023025943   -0.0034200589   -1.8848409447
C        1.7317643722    0.0986971362   -0.9866364944
H        0.3910602291   -1.6109525070   -0.3596847165
H       -0.3213202826    1.3176515385    0.2894032888
H       -0.7400838377   -1.1204959827    2.1575365838
H        0.4516328288    0.1317023581   -2.8965206474
H        2.7329396009    0.3799680765   -0.6971265093
13   
Iteration 33 Energy -340.92589463
C       -2.9679443414   -0.2509344785   -0.3416325743
N       -1.8703918185   -0.0058299060    0.0166888244
C        0.4532308663   -0.5281917570   -0.5143097151
C       -0.5173541261    0.2482175956    0.3917874146
C       -0.3014019889   -0.1544222605    1.8612288540
N        0.3990412157    0.5037150429    2.6574217548
C        0.7948066328   -0.0139147978   -1.8833212481
C        1.7265676885    0.1097411035   -0.9906715287
H        0.4091549788   -1.6079729946   -0.3364446723
H       -0.3241634005    1.3215442914    0.2923267862
H       -0.7709734449   -1.1011764894    2.1690192136
H        0.4369863548    0.1043886842   -2.8950721486
H        2.7259667103    0.4062302710   -0.7090597806
13   
Iteration 32 Energy -340.92577073
C       -2.9641471398   -0.2506851068   -0.3533169828
N       -1.8710778124   -0.0048393291    0.0124912482
C        0.4570264271   -0.5259805798   -0.5055360561
C       -0.5161662980    0.2512542713    0.3959586698
C       -0.3096651385   -0.1495387594    1.8662628075
N        0.4116709154    0.4934026317    2.6568608054
C        0.7877382021   -0.0248651063   -1.8818925840
C        1.7218497938    0.1206705150   -0.9944946572
H        0.4255505345   -1.6038949033   -0.3162552936
H       -0.3229922670    1.3219482781    0.2942305875
H       -0.8018771054   -1.0845882780    2.1800130059
H        0.4257385620    0.0774719064   -2.8933672530
H        2.7186285412    0.4312930953   -0.7203552534
13   
Iteration 31 Energy -340.92563127
C       -2.9592723921   -0.2510929656   -0.3645683654
N       -1.8674942876   -0.0033072367    0.0091678991
C        0.4623459635   -0.5237525242   -0.4961642970
C       -0.5198585702    0.2532234630    0.3979468013
C       -0.3172226503   -0.1443448061    1.8713011268
N        0.4245724439    0.4813015230    2.6559587876
C        0.7802885639   -0.0352241905   -1.8799154447
C        1.7165407312    0.1311220885   -0.9989406303
H        0.4445671964   -1.5994912509   -0.2917296302
H       -0.3284366360    1.3268343420    0.2964896150
H       -0.8369789255   -1.0596323694    2.1929515751
H        0.4109301909    0.0500083090   -2.8908714868
H        2.7112473326    0.4569509135   -0.7334689579
13   
Iteration 30 Energy -340.92545814
C       -2.9550935723   -0.2518135071   -0.3784889752
N       -1.8683881392   -0.0018148550    0.0042556811
C        0.4671203110   -0.5204947544   -0.4859261799
C       -0.5182744717    0.2574298649    0.4028414609
C       -0.3281348120   -0.1369432676    1.8779610815
N        0.4400030967    0.4666501521    2.6553825977
C        0.7726250620   -0.0491644236   -1.8782711387
C        1.7107090831    0.1444548268   -1.0044022986
H        0.4645763401   -1.5932538816   -0.2676890075
H       -0.3261441243    1.3283892443    0.2988390545
H       -0.8783673557   -1.0330234740    2.2082095720
H        0.3985000755    0.0161171508   -2.8884470397
H        2.7018733916    0.4870741536   -0.7484617450
13   
Iteration 29 Energy -340.92525373
C       -2.9482773173   -0.2525007975   -0.3908533836
N       -1.8639482984   -0.0003894927   -0.0005983820
C        0.4742889620   -0.5169754480   -0.4748403454
C       -0.5217999362    0.2599217790    0.4052193718
C       -0.3389095189   -0.1283014154    1.8846967144
N        0.4549823378    0.4490811219    2.6551762020
C        0.7636988280   -0.0630409473   -1.8762689479
C        1.7037194597    0.1578282352   -1.0113115938
H        0.4903021218   -1.5856355386   -0.2371119417
H       -0.3335657704    1.3334307932    0.3001135240
H       -0.9262084160   -0.9947458059    2.2255074579
H        0.3817942762   -0.0200076990   -2.8851733058
H        2.6910326721    0.5204258736   -0.7669731336
13   
Iteration 28 Energy -340.92502133
C       -2.9434466297   -0.2547882701   -0.4046621508
N       -1.8630264441    0.0024820120   -0.0067912661
C        0.4811242935   -0.5125823807   -0.4621667411
C       -0.5200413781    0.2649548054    0.4111320284
C       -0.3507462524   -0.1204301893    1.8915040163
N        0.4708599844    0.4306232226    2.6524139612
C        0.7548190082   -0.0796584817   -1.8728556508
C        1.6971859788    0.1734729059   -1.0196318737
H        0.5169730859   -1.5766125458   -0.2067361258
H       -0.3343175954    1.3385164488    0.3039286138
H       -0.9741472506   -0.9580164989    2.2409202478
H        0.3644382744   -0.0613145631   -2.8792185351
H        2.6800190512    0.5561022303   -0.7883199770
13   
Iteration 27 Energy -340.92479422
C       -2.9379897552   -0.2540266308   -0.4168552395
N       -1.8605507149    0.0028483667   -0.0118902112
C        0.4897716582   -0.5077876360   -0.4507654797
C       -0.5195615529    0.2694476972    0.4144879129
C       -0.3636290179   -0.1101757887    1.8988073910
N        0.4829744435    0.4119317450    2.6534509571
C        0.7457597146   -0.0958729881   -1.8707107181
C        1.6903442532    0.1879613496   -1.0292862777
H        0.5440077138   -1.5661740115   -0.1773750805
H       -0.3327075238    1.3416222182    0.3053135493
H       -1.0207520378   -0.9176326185    2.2600660534
H        0.3483238214   -0.1005008559   -2.8741333497
H        2.6682792573    0.5906252188   -0.8126520799
13   
Iteration 26 Energy -340.92460491
C       -2.9316668062   -0.2535702314   -0.4253862072
N       -1.8550089267    0.0010912264   -0.0167615934
C        0.4955810297   -0.5033087062   -0.4424700343
C       -0.5203031973    0.2725840238    0.4175000110
C       -0.3726764079   -0.1003296415    1.9049270558
N        0.4917522326    0.3952670429    2.6561706690
C        0.7385519401   -0.1087213570   -1.8700368551
C        1.6833663531    0.1991103975   -1.0377735830
H        0.5665689336   -1.5566685241   -0.1529128238
H       -0.3430565880    1.3476978117    0.3049485021
H       -1.0596956261   -0.8785960653    2.2707833315
H        0.3354113639   -0.1345628813   -2.8712827907
H        2.6572449819    0.6176995196   -0.8319343866
13   
Iteration 25 Energy -340.92431735
C       -2.9229551004   -0.2562380028   -0.4396087887
N       -1.8516200125    0.0039930173   -0.0218086102
C        0.5079442898   -0.4958978380   -0.4277116499
C       -0.5204949014    0.2795144010    0.4201892116
C       -0.3895305513   -0.0853925227    1.9135783785
N        0.5045591330    0.3680343619    2.6576647803
C        0.7270509718   -0.1297046888   -1.8661486388
C        1.6745808028    0.2161113070   -1.0513559314
H        0.6015159902   -1.5403043553   -0.1151645413
H       -0.3379560982    1.3522431198    0.3054716105
H       -1.1156255440   -0.8210981127    2.2952179559
H        0.3145185298   -0.1840379753   -2.8619677907
H        2.6414417887    0.6595057086   -0.8668417830
13   
Iteration 24 Energy -340.92410015
C       -2.9154033845   -0.2541927669   -0.4506558474
N       -1.8464033901    0.0033516417   -0.0258564557
C        0.5171239928   -0.4901616369   -0.4175695573
C       -0.5200167144    0.2834128014    0.4230279772
C       -0.3999398208   -0.0748965226    1.9203743884
N        0.5108549423    0.3487234494    2.6618649275
C        0.7175662112   -0.1460057191   -1.8642099442
C        1.6661234588    0.2291671221   -1.0635235537
H        0.6297892945   -1.5269871347   -0.0872083868
H       -0.3396231616    1.3562793335    0.3062535450
H       -1.1525463683   -0.7794128331    2.3097772231
H        0.2975652966   -0.2237820256   -2.8552785629
H        2.6269152142    0.6918317409   -0.8954925351
13   
Iteration 23 Energy -340.92390432
C       -2.9074344873   -0.2545126692   -0.4607484194
N       -1.8406127420    0.0049283427   -0.0305308748
C        0.5251473575   -0.4839763889   -0.4077481543
C       -0.5188161133    0.2870552129    0.4273455033
C       -0.4079289332   -0.0672270923    1.9264421579
N        0.5159029551    0.3305889842    2.6656678222
C        0.7087320506   -0.1625870943   -1.8620500237
C        1.6574513993    0.2417109940   -1.0764711624
H        0.6579004552   -1.5127376760   -0.0593237561
H       -0.3486498734    1.3627337258    0.3077939773
H       -1.1857759996   -0.7407873596    2.3178157441
H        0.2806247399   -0.2652236208   -2.8477680481
H        2.6120592048    0.7228230243   -0.9242253424
13   
Iteration 22 Energy -340.92372931
C       -2.8994022117   -0.2514879529   -0.4735008737
N       -1.8350571502    0.0031949015   -0.0344462825
C        0.5316763738   -0.4792839057   -0.4000675080
C       -0.5144125567    0.2908755833    0.4335421209
C       -0.4138870215   -0.0613849938    1.9333717333
N        0.5189306684    0.3167669636    2.6712268900
C        0.6988166817   -0.1775800660   -1.8602052617
C        1.6479146466    0.2535574941   -1.0897984555
H        0.6836518357   -1.5002804145   -0.0371996375
H       -0.3484331165    1.3673691387    0.3130983782
H       -1.2114003444   -0.7102892386    2.3271793125
H        0.2627333463   -0.3020527183   -2.8398965104
H        2.5959580172    0.7518092680   -0.9524557245
13   
Iteration 21 Energy -340.92356944
C       -2.8910319466   -0.2499206481   -0.4863091939
N       -1.8318720333    0.0074965456   -0.0380761850
C        0.5411881560   -0.4748625091   -0.3904293392
C       -0.5139246313    0.2927823396    0.4372503372
C       -0.4193219515   -0.0570715450    1.9386896554
N        0.5222883432    0.3036036184    2.6746437957
C        0.6886566566   -0.1936554676   -1.8560941448
C        1.6379597345    0.2657279236   -1.1017846279
H        0.7139570175   -1.4864672509   -0.0125051687
H       -0.3396994941    1.3671653128    0.3220694241
H       -1.2257256780   -0.6929347673    2.3390368854
H        0.2463150020   -0.3390999397   -2.8296236075
H        2.5776721585    0.7834747442   -0.9823500536
13   
Iteration 20 Energy -340.92336043
C       -2.8751259143   -0.2406101526   -0.5111885652
N       -1.8263923292    0.0063283012   -0.0318185031
C        0.5515663897   -0.4690257568   -0.3790072954
C       -0.5114382854    0.2933162958    0.4433511886
C       -0.4236693652   -0.0558355917    1.9447835558
N        0.5237759540    0.2916726659    2.6794256285
C        0.6747823267   -0.2137398518   -1.8520510965
C        1.6229565387    0.2806443651   -1.1193729107
H        0.7504222012   -1.4687485767    0.0173343264
H       -0.3465603350    1.3699774514    0.3290041896
H       -1.2444660116   -0.6711172823    2.3459557776
H        0.2212296458   -0.3872153705   -2.8160817503
H        2.5522159008    0.8214222976   -1.0208403836
13   
Iteration 19 Energy -340.92318748
C       -2.8651581350   -0.2329586465   -0.5327961527
N       -1.8199972203    0.0050114307   -0.0419405255
C        0.5559488939   -0.4645767685   -0.3678512496
C       -0.5117689301    0.2925693163    0.4537237627
C       -0.4231723004   -0.0562915495    1.9532872599
N        0.5322140230    0.2843525712    2.6814136701
C        0.6617076216   -0.2290759826   -1.8453087991
C        1.6071180431    0.2926889100   -1.1284159685
H        0.7767224408   -1.4540616525    0.0424456014
H       -0.3536524115    1.3711431716    0.3426707053
H       -1.2476581477   -0.6622291240    2.3594251730
H        0.2019813995   -0.4246997049   -2.8022460667
H        2.5270164304    0.8519593651   -1.0455583576
13   
Iteration 18 Energy -340.92299893
C       -2.8515614855   -0.2258409534   -0.5606708728
N       -1.8207197199    0.0041058077   -0.0369923381
C        0.5613864408   -0.4624744099   -0.3580882866
C       -0.5118173106    0.2926959225    0.4607285405
C       -0.4240773746   -0.0570913468    1.9591440727
N        0.5397565362    0.2787236268    2.6789674587
C        0.6500528136   -0.2421805402   -1.8380298058
C        1.5936047347    0.3030803738   -1.1357933842
H        0.8008974515   -1.4424722994    0.0630209189
H       -0.3443942963    1.3691834685    0.3548584291
H       -1.2495732191   -0.6586524011    2.3726395351
H        0.1842396438   -0.4541371678   -2.7880605415
H        2.5033306908    0.8802462592   -1.0676419250
13   
Iteration 17 Energy -340.92276983
C       -2.8405779841   -0.2189259148   -0.5832082427
N       -1.8201191750    0.0067532189   -0.0343713839
C        0.5630415357   -0.4627432887   -0.3503635540
C       -0.5158198606    0.2849861910    0.4661296812
C       -0.4206838819   -0.0617217708    1.9644142313
N        0.5473649895    0.2793625622    2.6763166844
C        0.6425534059   -0.2503375393   -1.8327535866
C        1.5816898930    0.3109723107   -1.1384334194
H        0.8169057795   -1.4373583737    0.0763602371
H       -0.3675891144    1.3663032088    0.3554790911
H       -1.2481004006   -0.6524384376    2.3848341616
H        0.1727339627   -0.4739956521   -2.7788208804
H        2.4840687336    0.9009455285   -1.0760239178
13   
Iteration 16 Energy -340.92253293
C       -2.8342223962   -0.2053376137   -0.6109574228
N       -1.8236947399   -0.0087946181   -0.0372079132
C        0.5601006385   -0.4604270196   -0.3437502732
C       -0.5183717978    0.2881964710    0.4746132380
C       -0.4161439075   -0.0584200521    1.9715585788
N        0.5616414483    0.2766794552    2.6740937776
C        0.6351194912   -0.2594692655   -1.8262610879
C        1.5692116798    0.3180624388   -1.1367752267
H        0.8243072511   -1.4276406670    0.0911280540
H       -0.3511200402    1.3645423325    0.3731710534
H       -1.2307481683   -0.6658588695    2.3986695414
H        0.1695081771   -0.4935780190   -2.7709689391
H        2.4638796047    0.9193773374   -1.0815676853
13   
Iteration 15 Energy -340.92195755
C       -2.8196352610   -0.1788067233   -0.6564641758
N       -1.8295940500   -0.0213902209   -0.0331244109
C        0.5625473273   -0.4549407347   -0.3250295994
C       -0.5306616708    0.2757153126    0.4860765551
C       -0.4071396584   -0.0728576643    1.9801006593
N        0.5813380594    0.2865109268    2.6556087459
C        0.6216937118   -0.2695215195   -1.8093557366
C        1.5552550255    0.3272301882   -1.1360748718
H        0.8447126660   -1.4140308842    0.1175791480
H       -0.3923497064    1.3575985271    0.3835812614
H       -1.2057608703   -0.6857684072    2.4249102737
H        0.1454618190   -0.5217013926   -2.7445465748
H        2.4435008375    0.9396617255   -1.0957388534
13   
Iteration 14 Energy -340.92103288
C       -2.8254719815   -0.1631294871   -0.6858177958
N       -1.8427904734   -0.0332976567   -0.0423378248
C        0.5719794568   -0.4457847078   -0.3081101609
C       -0.5420948487    0.2696977117    0.4952341059
C       -0.3988577655   -0.0814793196    1.9891630727
N        0.5986444223    0.2921608144    2.6446350215
C        0.6114146744   -0.2710214355   -1.7909191341
C        1.5603957770    0.3274328356   -1.1416048239
H        0.8617935613   -1.4008591504    0.1379529246
H       -0.4115510893    1.3522125699    0.3983558247
H       -1.1775846396   -0.7101159942    2.4479680381
H        0.1119506517   -0.5259731451   -2.7130124660
H        2.4490574138    0.9403957658   -1.1246232559
13   
Iteration 13 Energy -340.91971979
C       -2.8376955119   -0.1587592712   -0.7032270965
N       -1.8587035682   -0.0343080617   -0.0489023651
C        0.5860787327   -0.4414346535   -0.2966385865
C       -0.5474676237    0.2631888856    0.4992364552
C       -0.3929880944   -0.0871200137    1.9950985537
N        0.6083869801    0.2959409441    2.6405895557
C        0.6052523168   -0.2682710761   -1.7771556057
C        1.5710605204    0.3254324704   -1.1494801559
H        0.8806630290   -1.3953576272    0.1487364281
H       -0.4242157708    1.3466749993    0.4033011124
H       -1.1605012875   -0.7226829732    2.4624578223
H        0.0799772853   -0.5179565193   -2.6861719305
H        2.4603938303    0.9377475979   -1.1516377357
13   
Iteration 12 Energy -340.91832231
C       -2.8485717630   -0.1577367755   -0.7147755823
N       -1.8725209956   -0.0337995845   -0.0527463125
C        0.5979299577   -0.4396528347   -0.2897147303
C       -0.5475071063    0.2594213807    0.5012734164
C       -0.3892603947   -0.0901463422    1.9987929702
N        0.6141817651    0.2980576812    2.6394459801
C        0.6013868719   -0.2655108742   -1.7680176918
C        1.5790162118    0.3237931621   -1.1552428494
H        0.8950896247   -1.3935171007    0.1544639868
H       -0.4276594142    1.3433487566    0.4057917294
H       -1.1509294432   -0.7291800046    2.4695516366
H        0.0573389715   -0.5103406145   -2.6674934020
H        2.4688964669    0.9354817021   -1.1697086280
13   
Iteration 11 Energy -340.91707464
C       -2.8572644837   -0.1577095728   -0.7229628938
N       -1.8827920274   -0.0332217910   -0.0548218726
C        0.6065136380   -0.4387725268   -0.2852525103
C       -0.5450010118    0.2572143352    0.5026318370
C       -0.3868733632   -0.0921967912    2.0009022743
N        0.6177447064    0.2995059862    2.6390617298
C        0.5988100767   -0.2633757230   -1.7619778391
C        1.5841885161    0.3226513145   -1.1590626025
H        0.9048678089   -1.3928983091    0.1575584901
H       -0.4276122083    1.3427779261    0.4077000226
H       -1.1464504609   -0.7326821517    2.4734177009
H        0.0424359024   -0.5050685796   -2.6543754034
H        2.4743865464    0.9333615674   -1.1808312275
13   
Iteration 10 Energy -340.91612247
C       -2.8630767707   -0.1578923370   -0.7281261478
N       -1.8888801439   -0.0332169201   -0.0557086813
C        0.6111967669   -0.4377980741   -0.2819619363
C       -0.5431659682    0.2549932660    0.5027918073
C       -0.3849150488   -0.0931579812    2.0018960851
N        0.6196210459    0.3002054757    2.6391007590
C        0.5976969223   -0.2617662531   -1.7585181084
C        1.5866713194    0.3218742559   -1.1614469628
H        0.9097595832   -1.3941438979    0.1602692931
H       -0.4187419640    1.3490333617    0.4138994166
H       -1.1434012187   -0.7297948235    2.4704121404
H        0.0323958690   -0.5028741492   -2.6469525573
H        2.4783147025    0.9320076300   -1.1861150615
13   
Iteration 9 Energy -340.90815412
C       -2.8995093783   -0.1611970837   -0.7580458669
N       -1.9341571746   -0.0332793884   -0.0630653598
C        0.6381032013   -0.4378861608   -0.2676098305
C       -0.5022861164    0.2577010959    0.5191230333
C       -0.3760567518   -0.1031598528    2.0069688430
N        0.6260671965    0.3056528425    2.6372748000
C        0.5903725397   -0.2545210464   -1.7427944298
C        1.6005176386    0.3190949239   -1.1727792527
H        0.9394587389   -1.3955077943    0.1631050078
H       -0.4233990268    1.3368590687    0.4127509963
H       -1.1537522165   -0.7252727536    2.4728880221
H       -0.0112800851   -0.4892373874   -2.6068732346
H        2.4942693417    0.9232259851   -1.2117502782
13   
Iteration 8 Energy -340.89665235
C       -2.9312645655   -0.1652238236   -0.7841220958
N       -1.9800827654   -0.0347794038   -0.0688196168
C        0.6617320769   -0.4376793566   -0.2537133459
C       -0.4513421031    0.2634893775    0.5387764517
C       -0.3722529203   -0.1152667046    2.0129331926