13   
IRC reactant Energy -340.92653663
C       -3.0198978293   -0.2737163628   -0.2017234076
N       -1.8950835576   -0.0239119173    0.0505433981
C        0.4004930603   -0.5329475691   -0.6103006780
C       -0.5230057626    0.2348616353    0.3498715476
C       -0.2401152781   -0.1757304718    1.8055243511
N        0.3206761935    0.5759372485    2.6294935456
C        0.9018982975    0.1062911044   -1.8746748882
C        1.7750135519   -0.0146036656   -0.9242687034
H        0.2130299251   -1.6116089852   -0.5814919578
H       -0.3371874551    1.3087767379    0.2539222588
H       -0.5379874630   -1.2001584652    2.0785607942
H        0.6378931032    0.4055312074   -2.8777321148
H        2.7797627510    0.1095994287   -0.5492786827
13   
IRC product Energy -340.82899652
C       -3.1317939108   -0.1615061932   -0.9526628956
N       -2.3904048546   -0.0491161881   -0.0412655840
C        0.9341769381   -0.3789948428   -0.1370219424
C        0.1399104065    0.3883911557    0.8560694703
C       -0.5029679060   -0.2725211556    2.0240352344
N        0.5467632200    0.2985286281    2.3758572831
C        0.5614822907   -0.3123727263   -1.6020913347
C        1.6252486808    0.3457036802   -1.2824288278
H        1.3671775279   -1.3010149363    0.2630321889
H       -0.2225791818    1.3666199833    0.5534610711
H       -1.3135196926   -0.8860273149    2.3991863430
H       -0.1891170455   -0.6353687776   -2.3083850057
H        2.4509296021    0.9953484934   -1.5317807510
