13   
Iteration 0 Energy -340.82657045
C       -3.1278834243   -0.2511707271   -0.8524463185
N       -2.1973747951   -0.0814774329   -0.1421329970
C        0.8170509972   -0.3696430571   -0.2371029239
C       -0.0351872161    0.3915743683    0.7007363674
C       -0.4552054944   -0.1516717244    2.0103010652
N        0.5730936157    0.4540461764    2.3457934809
C        0.6324812538   -0.1735490379   -1.7241107055
C        1.6953011192    0.3707080889   -1.2347945205
H        1.1299079079   -1.3462421001    0.1410944896
H       -0.3477534644    1.3914507018    0.4283749410
H       -1.2390873889   -0.7818523565    2.4239934231
H       -0.0474299159   -0.4003520869   -2.5315164976
H        2.6010234033    0.9502007097   -1.3286627232
13   
Iteration 1 Energy -340.82658944
C       -3.1184728065   -0.2533775324   -0.8640412189
N       -2.2015520069   -0.0838300502   -0.1361334065
C        0.8131017927   -0.3701035636   -0.2362068134
C       -0.0384006970    0.3911689355    0.7006311908
C       -0.4492600902   -0.1426586235    2.0168944629
N        0.5838368611    0.4541955267    2.3518735629
C        0.6236568667   -0.1703404553   -1.7220406358
C        1.6885913772    0.3721767999   -1.2360907052
H        1.1267179148   -1.3472326839    0.1401605509
H       -0.3408413785    1.3949118025    0.4304051424
H       -1.2359929719   -0.7654477837    2.4383317185
H       -0.0615818995   -0.3945766306   -2.5254478068
H        2.5934155719    0.9526443749   -1.3334374956
13   
Iteration 2 Energy -340.82660361
C       -3.0964396483   -0.2556589468   -0.8838542848
N       -2.2066950445   -0.0810852946   -0.1239674759
C        0.8046769592   -0.3721312226   -0.2376580310
C       -0.0393908602    0.3907968999    0.7042810209
C       -0.4427461023   -0.1404694359    2.0240516464
N        0.5965480529    0.4491592857    2.3522472938
C        0.6054055036   -0.1713345439   -1.7221335135
C        1.6750104079    0.3684471446   -1.2436289003
H        1.1183902934   -1.3501135518    0.1362893311
H       -0.3378681474    1.3966452574    0.4372356143
H       -1.2313738790   -0.7564439007    2.4519271262
H       -0.0880841685   -0.3919293684   -2.5194892896
H        2.5798950605    0.9478399828   -1.3468499523
13   
Iteration 3 Energy -340.82661208
C       -3.0652683173   -0.2374759797   -0.8985593633
N       -2.2065023402   -0.0738416962   -0.1013832091
C        0.7972569174   -0.3939927307   -0.2337548669
C       -0.0307614470    0.3792830473    0.7139055151
C       -0.4289396261   -0.1450733702    2.0382389166
N        0.6198572083    0.4331560541    2.3559750185
C        0.5776020454   -0.2025950583   -1.7165620699
C        1.6563804709    0.3356764108   -1.2574596631
H        1.1110868762   -1.3710264531    0.1424927339
H       -0.3214438043    1.3876027310    0.4474741402
H       -1.2217236000   -0.7497176541    2.4744185233
H       -0.1314527365   -0.4229785939   -2.5002759673
H        2.5614322914    0.9115795166   -1.3774068843
13   
Iteration 4 Energy -340.82661204
C       -3.0553202583   -0.2181540750   -0.9042840067
N       -2.2092780455   -0.0690760921   -0.0907388942
C        0.7900767174   -0.4129172512   -0.2218819003
C       -0.0319678800    0.3623128626    0.7293436234
C       -0.4342608061   -0.1652867878    2.0512182314
N        0.6186773714    0.4036136871    2.3720400778
C        0.5633685603   -0.2211757049   -1.7035571455
C        1.6456622527    0.3147390497   -1.2501108571
H        1.1029087292   -1.3908366889    0.1528551662
H       -0.3152420449    1.3739617410    0.4676470417
H       -1.2317512185   -0.7659649501    2.4842735692
H       -0.1517820400   -0.4389284962   -2.4825158119
H        2.5509296891    0.8893598338   -1.3745219264
13   
Iteration 5 Energy -340.82661151
C       -3.0560376685   -0.2017651692   -0.9044770097
N       -2.2147297839   -0.0624516077   -0.0843020887
C        0.7826721428   -0.4225185010   -0.2093598610
C       -0.0376777357    0.3504580641    0.7451617694
C       -0.4467470409   -0.1846041839    2.0619815793
N        0.6083365679    0.3760686146    2.3901670534
C        0.5581306840   -0.2219702116   -1.6902213608
C        1.6418299180    0.3076603165   -1.2328320267
H        1.0914778133   -1.4036147781    0.1603698374
H       -0.3146822185    1.3655246672    0.4900969185
H       -1.2488113008   -0.7841099139    2.4881551037
H       -0.1574529155   -0.4326532453   -2.4707424776
H        2.5490726154    0.8800238591   -1.3531985640
13   
Iteration 6 Energy -340.82661160
C       -3.0592805417   -0.1864950488   -0.8999124181
N       -2.2189463377   -0.0568978305   -0.0771499173
C        0.7769432446   -0.4299467743   -0.1970074881
C       -0.0423996313    0.3418463403    0.7593536304
C       -0.4574179137   -0.1981429407    2.0723066684
N        0.5993416654    0.3559486417    2.4062085317
C        0.5565934240   -0.2214290662   -1.6774082349
C        1.6414309248    0.3015163627   -1.2150541450
H        1.0808363780   -1.4140650229    0.1687384062
H       -0.3140929009    1.3594813921    0.5088484567
H       -1.2633596607   -0.7961678667    2.4932081334
H       -0.1581370434   -0.4253471679   -2.4605011120
H        2.5512835700    0.8707070611   -1.3306661107
13   
Iteration 7 Energy -340.82661150
C       -3.0598513328   -0.1839167066   -0.8991611209
N       -2.2200478583   -0.0555259537   -0.0756685269
C        0.7753016351   -0.4332283641   -0.1945437019
C       -0.0433311109    0.3380155937    0.7628644215
C       -0.4598226508   -0.2038202915    2.0745846972
N        0.5977389028    0.3478318484    2.4099778045
C        0.5559263644   -0.2217354062   -1.6746588753
C        1.6412728800    0.2988783494   -1.2108607347
H        1.0776459682   -1.4184259125    0.1695757284
H       -0.3132368014    1.3565738807    0.5141891767
H       -1.2669388739   -0.8012912700    2.4940243388
H       -0.1587260841   -0.4232454911   -2.4584422398
H        2.5519523948    0.8670421392   -1.3250115935
13   
Iteration 8 Energy -340.82661153
C       -3.0598567648   -0.1841449358   -0.8990469264
N       -2.2200230596   -0.0555635507   -0.0756147750
C        0.7752488159   -0.4331237556   -0.1946282947
C       -0.0433555710    0.3381486882    0.7627790780
C       -0.4598887524   -0.2036787719    2.0744921823
N        0.5976690732    0.3479303636    2.4099630554
C        0.5559457885   -0.2215129642   -1.6747396204
C        1.6413472675    0.2989272643   -1.2108776430
H        1.0774619175   -1.4183819234    0.1694392623
H       -0.3131744264    1.3567360770    0.5141356935
H       -1.2670530008   -0.8011305057    2.4938707710
H       -0.1587068920   -0.4228771698   -2.4585601635
H        2.5521129714    0.8669676629   -1.3249474364
13   
Iteration 9 Energy -340.82661155
C       -3.0598806278   -0.1842839186   -0.8989897500
N       -2.2200285030   -0.0555711883   -0.0755968934
C        0.7752440902   -0.4330620865   -0.1946713458
C       -0.0433403182    0.3382242038    0.7627413672
C       -0.4599021403   -0.2036047301    2.0744467760
N        0.5976600358    0.3479904527    2.4099247140
C        0.5559774153   -0.2213863129   -1.6747790710
C        1.6414080487    0.2989636519   -1.2108834983
H        1.0773881169   -1.4183524572    0.1693663732
H       -0.3131317978    1.3568207785    0.5141028633
H       -1.2670806965   -0.8010463983    2.4938107148
H       -0.1586747945   -0.4226723229   -2.4586201459
H        2.5522181379    0.8669403009   -1.3249159903
13   
Iteration 10 Energy -340.82661156
C       -3.0598908378   -0.1843553584   -0.8989575896
N       -2.2200218775   -0.0555700959   -0.0755931807
C        0.7752332639   -0.4330330084   -0.1946946941
C       -0.0433438233    0.3382581575    0.7627194053
C       -0.4599077341   -0.2035681378    2.0744255858
N        0.5976558672    0.3480181073    2.4099122085
C        0.5559878259   -0.2213240909   -1.6748012100
C        1.6414311625    0.2989821946   -1.2108862045
H        1.0773437514   -1.4183389676    0.1693282488
H       -0.3131207434    1.3568599906    0.5140859537
H       -1.2670928873   -0.8010058337    2.4937819763
H       -0.1586627081   -0.4225722420   -2.4586536430
H        2.5522631280    0.8669281758   -1.3248980228
13   
Iteration 11 Energy -340.82661156
C       -3.0598996066   -0.1843913758   -0.8989441393
N       -2.2200257667   -0.0555689934   -0.0755907919
C        0.7752345178   -0.4330184584   -0.1947042769
C       -0.0433364404    0.3382756324    0.7627126921
C       -0.4599072194   -0.2035517814    2.0744165039
N        0.5976586079    0.3480317739    2.4099004383
C        0.5559973392   -0.2212927934   -1.6748096576
C        1.6414477009    0.2989914220   -1.2108863939
H        1.0773282705   -1.4183325465    0.1693104972
H       -0.3131090456    1.3568788657    0.5140795676
H       -1.2670945891   -0.8009869427    2.4937717241
H       -0.1586529411   -0.4225213257   -2.4586672416
H        2.5522902087    0.8669219978   -1.3248898587
