13   
Iteration 1 Energy -340.92501835
C       -2.1253079348    1.2818694559    0.4638327256
N       -0.9819064394    1.7733379770    0.2840190942
C        0.9280813135    0.3387762898   -0.4624247053
C       -0.0750153952    0.6445950397    0.6525584072
C       -1.0576434347   -0.4459990936    1.0178859812
N       -2.2869214291   -0.0614361034    0.9115432220
C        1.4898826200   -1.0404928606   -0.6949070857
C        0.6315505496   -0.6295082051   -1.5756805616
H        1.5486288671    1.2148648295   -0.6724376776
H        0.4750060716    0.9572519570    1.5544279493
H       -0.7997747461   -1.4500077382    1.3484514393
H        2.1760699088   -1.7949700846   -0.3386480426
H        0.0773500487   -0.7882814632   -2.4886207463
