13   
Iteration 0 Energy -340.94785028
C       -2.1253079348    1.2818694559    0.4638327256
N       -0.9819064394    1.7733379770    0.2840190942
C        0.9280813135    0.3387762898   -0.4624247053
C       -0.0750153952    0.6445950397    0.6525584072
C       -1.0576434347   -0.4459990936    1.0178859812
N       -2.2869214291   -0.0614361034    0.9115432220
C        1.4898826200   -1.0404928606   -0.6949070857
C        0.6315505496   -0.6295082051   -1.5756805616
H        1.5486288671    1.2148648295   -0.6724376776
H        0.4750060716    0.9572519570    1.5544279493
H       -0.7997747461   -1.4500077382    1.3484514393
H        2.1760699088   -1.7949700846   -0.3386480426
H        0.0773500487   -0.7882814632   -2.4886207463
13   
Iteration 1 Energy -340.94787274
C       -2.1311157643    1.2848973859    0.4672191240
N       -0.9863711633    1.7716883947    0.2835679841
C        0.9284300161    0.3382765469   -0.4632567088
C       -0.0768676453    0.6427994620    0.6509940036
C       -1.0575016541   -0.4478710403    1.0195125651
N       -2.2868869326   -0.0579258815    0.9149980880
C        1.4922562871   -1.0417069662   -0.6955141854
C        0.6344731868   -0.6297603399   -1.5790702642
H        1.5484482323    1.2138491896   -0.6722368681
H        0.4731334818    0.9563482591    1.5523414589
H       -0.8007262784   -1.4511091239    1.3508848333
H        2.1779991858   -1.7956148980   -0.3395802371
H        0.0830001730   -0.7878597432   -2.4929433341
13   
Iteration 2 Energy -340.94788019
C       -2.1320653540    1.2820318191    0.4692116530
N       -0.9880843402    1.7698347529    0.2825496977
C        0.9291744529    0.3388513946   -0.4638104506
C       -0.0774186771    0.6422875601    0.6494033073
C       -1.0584427552   -0.4474540417    1.0191954538
N       -2.2886900619   -0.0593744242    0.9183535386
C        1.4924423643   -1.0419241333   -0.6954605442
C        0.6358617334   -0.6291310902   -1.5803274376
H        1.5498745508    1.2138098097   -0.6722049075
H        0.4719496613    0.9571151630    1.5506944183
H       -0.8015756419   -1.4503041124    1.3506013484
H        2.1773093579   -1.7963904546   -0.3393761018
H        0.0856408467   -0.7868752800   -2.4948901891
13   
Iteration 3 Energy -340.94788270
C       -2.1326365681    1.2802990200    0.4700771638
N       -0.9896017914    1.7690798716    0.2806110130
C        0.9287024583    0.3387592037   -0.4638868048
C       -0.0791007111    0.6417805159    0.6477666330
C       -1.0586367352   -0.4487097583    1.0195836499
N       -2.2888561126   -0.0602295734    0.9207242095
C        1.4922755612   -1.0419906609   -0.6958514441
C        0.6370902689   -0.6286434845   -1.5814831365
H        1.5499414382    1.2136411275   -0.6710393827
H        0.4693064847    0.9579826160    1.5492827310
H       -0.8014158502   -1.4514793651    1.3512852858
H        2.1770526517   -1.7967958677   -0.3399867461
H        0.0884491490   -0.7858553325   -2.4971973599
13   
Iteration 4 Energy -340.94788416
C       -2.1353248517    1.2776573902    0.4709059776
N       -0.9929201211    1.7671208592    0.2782360245
C        0.9287127908    0.3387139507   -0.4640478667
C       -0.0808025158    0.6410663598    0.6456466007
C       -1.0586367581   -0.4500086191    1.0196082310
N       -2.2893597938   -0.0621980561    0.9229064726
C        1.4919752806   -1.0421829242   -0.6962810384
C        0.6384828407   -0.6278190802   -1.5828042644
H        1.5509148025    1.2133327290   -0.6696909083
H        0.4660863411    0.9589239303    1.5477186999
H       -0.8002083124   -1.4524939874    1.3515138996
H        2.1763652946   -1.7975558760   -0.3406322282
H        0.0915117637   -0.7841050057   -2.4997572810
13   
Iteration 5 Energy -340.94788471
C       -2.1391298906    1.2731910505    0.4705725345
N       -0.9976575048    1.7640622237    0.2749983777
C        0.9285210919    0.3386293397   -0.4643175735
C       -0.0829301569    0.6402320363    0.6433439014
C       -1.0583951996   -0.4520551422    1.0196348151
N       -2.2899135965   -0.0660652680    0.9248110356
C        1.4909970172   -1.0425148907   -0.6968884949
C        0.6399170051   -0.6263497606   -1.5848245367
H        1.5520074774    1.2128832716   -0.6677936792
H        0.4618423665    0.9604987175    1.5460259662
H       -0.7977103437   -1.4537833871    1.3520753705
H        2.1745753753   -1.7985766245   -0.3411672725
H        0.0951412529   -0.7808843227   -2.5033613095
13   
Iteration 6 Energy -340.94788488
C       -2.1424976195    1.2683409203    0.4686741490
N       -1.0019751192    1.7609671766    0.2718777992
C        0.9283630303    0.3385831638   -0.4642244464
C       -0.0848289039    0.6395227455    0.6418249774
C       -1.0581950330   -0.4542414978    1.0194639108
N       -2.2904759539   -0.0707891933    0.9245280785
C        1.4901212592   -1.0426684976   -0.6977188214
C        0.6404264435   -0.6248135298   -1.5861965423
H        1.5528232298    1.2126129440   -0.6658103894
H        0.4580728895    0.9621476001    1.5448427320
H       -0.7952520130   -1.4550426722    1.3529097918
H        2.1732141037   -1.7992570893   -0.3422453365
H        0.0968406808   -0.7775721478   -2.5057066324
13   
Iteration 7 Energy -340.94788477
C       -2.1498113624    1.2565715742    0.4627452373
N       -1.0114974551    1.7537805302    0.2652045086
C        0.9273642271    0.3386004629   -0.4640068024
C       -0.0890453812    0.6379544689    0.6393497758
C       -1.0576751674   -0.4594093161    1.0192280919
N       -2.2916680591   -0.0821997088    0.9227575077
C        1.4877677112   -1.0428119090   -0.6998007534
C        0.6413414344   -0.6210818638   -1.5895796331
H        1.5536069789    1.2123432837   -0.6614051735
H        0.4503396297    0.9659027445    1.5425709570
H       -0.7897468943   -1.4579521386    1.3554745657
H        2.1696548349   -1.8006148517   -0.3446788286
H        0.1004762540   -0.7698083079   -2.5113189266
13   
Iteration 8 Energy -340.94788503
C       -2.1533704280    1.2497034343    0.4581001285
N       -1.0162387239    1.7498981311    0.2620147113
C        0.9266657759    0.3389132666   -0.4636794958
C       -0.0912022714    0.6370973979    0.6387878678
C       -1.0573966483   -0.4625101911    1.0186771334
N       -2.2922814350   -0.0892147275    0.9193860117
C        1.4866169997   -1.0424429379   -0.7010677776
C        0.6409228360   -0.6190226055   -1.5907698985
H        1.5533960016    1.2126886021   -0.6593497449
H        0.4468389185    0.9676367611    1.5417591598
H       -0.7870719072   -1.4597732420    1.3567883566
H        2.1680787811   -1.8008248404   -0.3464132233
H        0.1005358859   -0.7659974567   -2.5130527653
13   
Iteration 9 Energy -340.94788523
C       -2.1571961529    1.2420918663    0.4526142827
N       -1.0212518238    1.7457491144    0.2591732448
C        0.9251465566    0.3391475438   -0.4634787785
C       -0.0937726333    0.6359720130    0.6387230104
C       -1.0575022553   -0.4659993239    1.0179969773
N       -2.2932827512   -0.0967936892    0.9151932578
C        1.4858213697   -1.0416954541   -0.7028681682
C        0.6405868703   -0.6170632964   -1.5923959540
H        1.5516680158    1.2133796863   -0.6575168552
H        0.4435213553    0.9689573451    1.5410940468
H       -0.7850764392   -1.4619745831    1.3582004700
H        2.1671910180   -1.8004531426   -0.3488387127
H        0.1007768016   -0.7626951285   -2.5152335022
13   
Iteration 10 Energy -340.94788515
C       -2.1597574472    1.2371754774    0.4496846255
N       -1.0245905034    1.7431324417    0.2575889414
C        0.9242049949    0.3397174464   -0.4636684409
C       -0.0955355759    0.6350635369    0.6382480421
C       -1.0574931066   -0.4685705652    1.0169519093
N       -2.2938589508   -0.1017271942    0.9124046451
C        1.4853193872   -1.0408574479   -0.7037011013
C        0.6402828761   -0.6158753590   -1.5932576794
H        1.5504976202    1.2142746283   -0.6569716543
H        0.4411746184    0.9692378955    1.5404773968
H       -0.7837383033   -1.4639254200    1.3579387430
H        2.1664905091   -1.7998952784   -0.3498407864
H        0.1006774866   -0.7612329791   -2.5162763797
13   
Iteration 11 Energy -340.94788507
C       -2.1623498118    1.2331737636    0.4478117232
N       -1.0277598487    1.7408431255    0.2563693375
C        0.9230585135    0.3398814626   -0.4640444476
C       -0.0974065403    0.6340208119    0.6375718697
C       -1.0579855791   -0.4708195869    1.0159663219
N       -2.2948227801   -0.1056849117    0.9104923826
C        1.4855144592   -1.0400487540   -0.7048109529
C        0.6404325300   -0.6152437441   -1.5943715347
H        1.5487518628    1.2150181303   -0.6566270694
H        0.4387473050    0.9690153524    1.5398279186
H       -0.7831879089   -1.4657410646    1.3573841300
H        2.1669771315   -1.7989780091   -0.3512520415
H        0.1012344206   -0.7606377684   -2.5176285948
