13   
Iteration 0 Energy -340.92501833
C       -2.2413523869    1.3007177477    0.0569421323
N       -1.0834184079    1.7747156944   -0.0685443810
C        0.8707566119    0.2809700008   -0.5294536558
C       -0.2184476528    0.6811966536    0.4686277491
C       -1.2358807607   -0.3739397773    0.8426793718
N       -2.4492543433    0.0005321236    0.6023272047
C        1.4323281570   -1.1158781039   -0.6037027053
C        0.6556939038   -0.7715964789   -1.5833338916
H        1.5177019082    1.1336386957   -0.7556438058
H        0.2576453074    1.0695715219    1.3830116725
H       -1.0135836824   -1.3461253379    1.2777578295
H        2.0767731688   -1.8434812858   -0.1322188436
H        0.1774079916   -0.9995143380   -2.5241207299
13   
Iteration 1 Energy -340.92501835
C       -2.2419612040    1.2996925069    0.0566471360
N       -1.0841895728    1.7741131793   -0.0686748808
C        0.8705897170    0.2809685799   -0.5296316656
C       -0.2188503354    0.6808164525    0.4683934467
C       -1.2360257859   -0.3746476307    0.8422757106
N       -2.4495230525   -0.0005982270    0.6018922631
C        1.4327232467   -1.1156818250   -0.6038871451
C        0.6559379469   -0.7716966231   -1.5834976791
H        1.5172415097    1.1338650652   -0.7557881037
H        0.2570680500    1.0692104770    1.3828547186
H       -1.0134470592   -1.3467789949    1.2773019609
H        2.0774516957   -1.8430367810   -0.1324099144
H        0.1777386349   -0.9998114243   -2.5242815469
